 Entering Gaussian System, Link 0=g16
 Initial command:
 /ichec/packages/gaussian/16b01/l1.exe "/localscratch/350155/Gau-87858.inp" -scrdir="/localscratch/350155/"
 Entering Link 1 = /ichec/packages/gaussian/16b01/l1.exe PID=     89001.
  
 Copyright (c) 1988-2017, Gaussian, Inc.  All Rights Reserved.
  
 This is part of the Gaussian(R) 16 program.  It is based on
 the Gaussian(R) 09 system (copyright 2009, Gaussian, Inc.),
 the Gaussian(R) 03 system (copyright 2003, Gaussian, Inc.),
 the Gaussian(R) 98 system (copyright 1998, Gaussian, Inc.),
 the Gaussian(R) 94 system (copyright 1995, Gaussian, Inc.),
 the Gaussian 92(TM) system (copyright 1992, Gaussian, Inc.),
 the Gaussian 90(TM) system (copyright 1990, Gaussian, Inc.),
 the Gaussian 88(TM) system (copyright 1988, Gaussian, Inc.),
 the Gaussian 86(TM) system (copyright 1986, Carnegie Mellon
 University), and the Gaussian 82(TM) system (copyright 1983,
 Carnegie Mellon University). Gaussian is a federally registered
 trademark of Gaussian, Inc.
  
 This software contains proprietary and confidential information,
 including trade secrets, belonging to Gaussian, Inc.
  
 This software is provided under written license and may be
 used, copied, transmitted, or stored only in accord with that
 written license.
  
 The following legend is applicable only to US Government
 contracts under FAR:
  
                    RESTRICTED RIGHTS LEGEND
  
 Use, reproduction and disclosure by the US Government is
 subject to restrictions as set forth in subparagraphs (a)
 and (c) of the Commercial Computer Software - Restricted
 Rights clause in FAR 52.227-19.
  
 Gaussian, Inc.
 340 Quinnipiac St., Bldg. 40, Wallingford CT 06492
  
  
 ---------------------------------------------------------------
 Warning -- This program may not be used in any manner that
 competes with the business of Gaussian, Inc. or will provide
 assistance to any competitor of Gaussian, Inc.  The licensee
 of this program is prohibited from giving any competitor of
 Gaussian, Inc. access to this program.  By using this program,
 the user acknowledges that Gaussian, Inc. is engaged in the
 business of creating and licensing software in the field of
 computational chemistry and represents and warrants to the
 licensee that it is not a competitor of Gaussian, Inc. and that
 it will not use this program in any manner prohibited above.
 ---------------------------------------------------------------
  

 Cite this work as:
 Gaussian 16, Revision B.01,
 M. J. Frisch, G. W. Trucks, H. B. Schlegel, G. E. Scuseria, 
 M. A. Robb, J. R. Cheeseman, G. Scalmani, V. Barone, 
 G. A. Petersson, H. Nakatsuji, X. Li, M. Caricato, A. V. Marenich, 
 J. Bloino, B. G. Janesko, R. Gomperts, B. Mennucci, H. P. Hratchian, 
 J. V. Ortiz, A. F. Izmaylov, J. L. Sonnenberg, D. Williams-Young, 
 F. Ding, F. Lipparini, F. Egidi, J. Goings, B. Peng, A. Petrone, 
 T. Henderson, D. Ranasinghe, V. G. Zakrzewski, J. Gao, N. Rega, 
 G. Zheng, W. Liang, M. Hada, M. Ehara, K. Toyota, R. Fukuda, 
 J. Hasegawa, M. Ishida, T. Nakajima, Y. Honda, O. Kitao, H. Nakai, 
 T. Vreven, K. Throssell, J. A. Montgomery, Jr., J. E. Peralta, 
 F. Ogliaro, M. J. Bearpark, J. J. Heyd, E. N. Brothers, K. N. Kudin, 
 V. N. Staroverov, T. A. Keith, R. Kobayashi, J. Normand, 
 K. Raghavachari, A. P. Rendell, J. C. Burant, S. S. Iyengar, 
 J. Tomasi, M. Cossi, J. M. Millam, M. Klene, C. Adamo, R. Cammi, 
 J. W. Ochterski, R. L. Martin, K. Morokuma, O. Farkas, 
 J. B. Foresman, and D. J. Fox, Gaussian, Inc., Wallingford CT, 2016.
 
 ******************************************
 Gaussian 16:  ES64L-G16RevB.01 20-Dec-2017
                17-Jun-2019 
 ******************************************
 %mem=80GB
 %nproc=40
 Will use up to   40 processors via shared memory.
 ----------------------------------------------------------------------
 # opt=(calcfc,ts,noeigentest,maxcyc=500,modredundant) uB2PLYPD3/cc-pvt
 z scf=maxcyc=500 nosymm
 ----------------------------------------------------------------------
 1/5=1,6=500,10=4,11=1,18=120,38=1/1,3;
 2/9=110,12=2,15=1,17=6,18=5,40=1/2;
 3/5=16,6=1,11=2,25=1,30=1,71=2,74=-60,116=2,140=1/1,2,3;
 4//1;
 5/5=2,7=500,38=5/2;
 8/6=3,8=1,10=1,19=11,30=-1/1;
 9/15=3,16=-3/6;
 11/6=1,8=1,15=11,17=12,24=-1,27=1,28=-2,29=300,31=1,32=6,42=3/1,2,10;
 10/6=2,21=1,31=1/2;
 8/6=4,8=1,10=1,19=11,30=-1/11,4;
 10/5=1,20=4,31=1/2;
 11/12=2,14=11,16=1,17=2,28=-2,31=1,42=3,76=2/2,10,12;
 6/7=2,8=2,9=2,10=2/1;
 7/10=1,12=2,25=1,30=1,44=2/1,2,3,16;
 1/5=1,6=500,10=4,11=1,18=20/3(2);
 2/9=110,15=1/2;
 99//99;
 2/9=110,15=1/2;
 3/5=16,6=1,11=2,25=1,30=1,71=1,74=-60,116=2/1,2,3;
 4/5=5,16=3,69=1/1;
 5/5=2,7=500,38=5/2;
 8/6=4,10=1/1;
 9/15=2,16=-3/6;
 10/5=1,31=1/2;
 7/12=2,30=1/1,2,3,16;
 1/5=1,6=500,11=1,18=20/3(-8);
 2/9=110,15=1/2;
 6/7=2,8=2,9=2,10=2/1;
 99/9=10/99;
 -------------------
 Title Card Required
 -------------------
 Symbolic Z-matrix:
 Charge =  0 Multiplicity = 2
 C                     1.34889   0.1462   -0.06506 
 C                     1.17029   1.43351  -0.24968 
 C                    -2.21003   0.19869   0.78362 
 H                    -1.40449   0.46321   1.47006 
 H                    -2.93789   1.00623   0.73521 
 H                    -2.69071  -0.72213   1.10926 
 O                    -1.71655   0.06247  -0.54175 
 O                    -0.82895  -1.03795  -0.55311 
 H                     0.17028  -0.56599  -0.35189 
 H                     1.97464   2.1444   -0.07564 
 H                     0.22023   1.8264   -0.58804 
 C                     2.4765   -0.7058    0.36755 
 H                     2.74482  -1.42279  -0.40787 
 H                     3.35301  -0.08989   0.586 
 H                     2.22022  -1.27108   1.26316 
 
 Add virtual bond connecting atoms H9         and C1         Dist= 2.66D+00.
 The following ModRedundant input section has been read:
 D    *          1       8    *    R                                           
 D      12       1       8       7 S  36 10.000                                
 

 GradGradGradGradGradGradGradGradGradGradGradGradGradGradGradGradGradGrad
 Berny optimization.
 Initialization pass.
                           ----------------------------
                           !    Initial Parameters    !
                           ! (Angstroms and Degrees)  !
 --------------------------                            --------------------------
 ! Name  Definition              Value          Derivative Info.                !
 --------------------------------------------------------------------------------
 ! R1    R(1,2)                  1.3127         calculate D2E/DX2 analytically  !
 ! R2    R(1,9)                  1.4066         calculate D2E/DX2 analytically  !
 ! R3    R(1,12)                 1.478          calculate D2E/DX2 analytically  !
 ! R4    R(2,10)                 1.0875         calculate D2E/DX2 analytically  !
 ! R5    R(2,11)                 1.0823         calculate D2E/DX2 analytically  !
 ! R6    R(3,4)                  1.0909         calculate D2E/DX2 analytically  !
 ! R7    R(3,5)                  1.0882         calculate D2E/DX2 analytically  !
 ! R8    R(3,6)                  1.0886         calculate D2E/DX2 analytically  !
 ! R9    R(3,7)                  1.4208         calculate D2E/DX2 analytically  !
 ! R10   R(7,8)                  1.4138         calculate D2E/DX2 analytically  !
 ! R11   R(8,9)                  1.1233         calculate D2E/DX2 analytically  !
 ! R12   R(12,13)                1.0897         calculate D2E/DX2 analytically  !
 ! R13   R(12,14)                1.0933         calculate D2E/DX2 analytically  !
 ! R14   R(12,15)                1.0896         calculate D2E/DX2 analytically  !
 ! A1    A(2,1,9)              110.7222         calculate D2E/DX2 analytically  !
 ! A2    A(2,1,12)             135.2565         calculate D2E/DX2 analytically  !
 ! A3    A(9,1,12)             114.0211         calculate D2E/DX2 analytically  !
 ! A4    A(1,2,10)             121.1934         calculate D2E/DX2 analytically  !
 ! A5    A(1,2,11)             121.2907         calculate D2E/DX2 analytically  !
 ! A6    A(10,2,11)            117.5142         calculate D2E/DX2 analytically  !
 ! A7    A(4,3,5)              109.9955         calculate D2E/DX2 analytically  !
 ! A8    A(4,3,6)              110.0555         calculate D2E/DX2 analytically  !
 ! A9    A(4,3,7)              110.7169         calculate D2E/DX2 analytically  !
 ! A10   A(5,3,6)              110.2234         calculate D2E/DX2 analytically  !
 ! A11   A(5,3,7)              105.1867         calculate D2E/DX2 analytically  !
 ! A12   A(6,3,7)              110.5675         calculate D2E/DX2 analytically  !
 ! A13   A(3,7,8)              107.4682         calculate D2E/DX2 analytically  !
 ! A14   A(7,8,9)              103.2974         calculate D2E/DX2 analytically  !
 ! A15   A(1,12,13)            111.0307         calculate D2E/DX2 analytically  !
 ! A16   A(1,12,14)            110.2045         calculate D2E/DX2 analytically  !
 ! A17   A(1,12,15)            111.1113         calculate D2E/DX2 analytically  !
 ! A18   A(13,12,14)           108.3881         calculate D2E/DX2 analytically  !
 ! A19   A(13,12,15)           107.546          calculate D2E/DX2 analytically  !
 ! A20   A(14,12,15)           108.4562         calculate D2E/DX2 analytically  !
 ! A21   L(1,9,8,4,-1)         175.1899         calculate D2E/DX2 analytically  !
 ! A22   L(1,9,8,4,-2)         176.4557         calculate D2E/DX2 analytically  !
 ! D1    D(9,1,2,10)           179.939          calculate D2E/DX2 analytically  !
 ! D2    D(9,1,2,11)            -0.5508         calculate D2E/DX2 analytically  !
 ! D3    D(12,1,2,10)            0.1003         calculate D2E/DX2 analytically  !
 ! D4    D(12,1,2,11)          179.6105         calculate D2E/DX2 analytically  !
 ! D5    D(12,1,8,7)           163.906          Scan                            !
 ! D6    D(2,1,12,13)         -119.526          calculate D2E/DX2 analytically  !
 ! D7    D(2,1,12,14)            0.5811         calculate D2E/DX2 analytically  !
 ! D8    D(2,1,12,15)          120.8261         calculate D2E/DX2 analytically  !
 ! D9    D(9,1,12,13)           60.6392         calculate D2E/DX2 analytically  !
 ! D10   D(9,1,12,14)         -179.2537         calculate D2E/DX2 analytically  !
 ! D11   D(9,1,12,15)          -59.0087         calculate D2E/DX2 analytically  !
 ! D12   D(4,3,7,8)             65.0762         calculate D2E/DX2 analytically  !
 ! D13   D(5,3,7,8)           -176.1419         calculate D2E/DX2 analytically  !
 ! D14   D(6,3,7,8)            -57.1668         calculate D2E/DX2 analytically  !
 ! D15   D(3,7,8,9)            -92.0087         calculate D2E/DX2 analytically  !
 --------------------------------------------------------------------------------
 Trust Radius=3.00D-01 FncErr=1.00D-07 GrdErr=1.00D-07 EigMax=2.50D+02 EigMin=1.00D-04
 Number of optimizations in scan=  37
 Number of steps in this run=    100 maximum allowed number of steps=    100.
 Search for a saddle point of order  1.
 GradGradGradGradGradGradGradGradGradGradGradGradGradGradGradGradGradGrad

                          Input orientation:                          
 ---------------------------------------------------------------------
 Center     Atomic      Atomic             Coordinates (Angstroms)
 Number     Number       Type             X           Y           Z
 ---------------------------------------------------------------------
      1          6           0        1.348892    0.146197   -0.065062
      2          6           0        1.170291    1.433505   -0.249675
      3          6           0       -2.210033    0.198693    0.783619
      4          1           0       -1.404488    0.463209    1.470062
      5          1           0       -2.937893    1.006233    0.735213
      6          1           0       -2.690708   -0.722134    1.109262
      7          8           0       -1.716550    0.062465   -0.541748
      8          8           0       -0.828950   -1.037955   -0.553111
      9          1           0        0.170278   -0.565988   -0.351890
     10          1           0        1.974635    2.144405   -0.075638
     11          1           0        0.220233    1.826398   -0.588043
     12          6           0        2.476500   -0.705803    0.367553
     13          1           0        2.744821   -1.422791   -0.407874
     14          1           0        3.353011   -0.089886    0.586003
     15          1           0        2.220217   -1.271078    1.263161
 ---------------------------------------------------------------------
                    Distance matrix (angstroms):
                    1          2          3          4          5
     1  C    0.000000
     2  C    1.312685   0.000000
     3  C    3.659093   3.744202   0.000000
     4  H    3.168312   3.244758   1.090906   0.000000
     5  H    4.444843   4.246144   1.088230   1.784996   0.000000
     6  H    4.295510   4.626100   1.088584   1.785939   1.785571
     7  O    3.103413   3.209191   1.420803   2.074936   2.003249
     8  O    2.526540   3.193298   2.285506   2.584176   3.207199
     9  H    1.406630   2.237956   2.745906   2.618901   3.648890
    10  H    2.093920   1.087491   4.694205   4.078490   5.107430
    11  H    2.090563   1.082344   3.230646   2.955300   3.520999
    12  C    1.478026   2.581432   4.791118   4.200498   5.690509
    13  H    2.127877   3.265363   5.347845   4.929544   6.284906
    14  H    2.120404   2.789865   5.574028   4.870449   6.387426
    15  H    2.128862   3.271970   4.692260   4.023561   5.663124
                    6          7          8          9         10
     6  H    0.000000
     7  O    2.071331   0.000000
     8  O    2.515824   1.413820   0.000000
     9  H    3.216300   1.997779   1.123254   0.000000
    10  H    5.602362   4.263400   4.267960   3.267759   0.000000
    11  H    4.224859   2.620063   3.050659   2.404532   1.855159
    12  C    5.220195   4.358754   3.447310   2.419877   2.927793
    13  H    5.686616   4.704013   3.597365   2.713949   3.664486
    14  H    6.099187   5.195718   4.436802   3.352030   2.707350
    15  H    4.943906   4.531464   3.556770   2.703293   3.676713
                   11         12         13         14         15
    11  H    0.000000
    12  C    3.523627   0.000000
    13  H    4.118645   1.089658   0.000000
    14  H    3.855493   1.093319   1.770402   0.000000
    15  H    4.125682   1.089647   1.758006   1.771152   0.000000
 Symmetry turned off by external request.
 Stoichiometry    C4H9O2(2)
 Framework group  C1[X(C4H9O2)]
 Deg. of freedom    39
 Full point group                 C1      NOp   1
 Rotational constants (GHZ):           5.7395952           1.6837676           1.5003561
 Standard basis: CC-pVTZ (5D, 7F)
   306 basis functions,   465 primitive gaussians,   345 cartesian basis functions
    25 alpha electrons       24 beta electrons
       nuclear repulsion energy       235.4016370928 Hartrees.
 NAtoms=   15 NActive=   15 NUniq=   15 SFac= 1.00D+00 NAtFMM=   60 NAOKFM=F Big=F
 Integral buffers will be    131072 words long.
 Raffenetti 2 integral format.
 Two-electron integral symmetry is turned off.
 Nuclear repulsion after empirical dispersion term =      235.3944403172 Hartrees.
 One-electron integrals computed using PRISM.
 NBasis=   306 RedAO= T EigKep=  4.20D-04  NBF=   306
 NBsUse=   306 1.00D-06 EigRej= -1.00D+00 NBFU=   306
 ExpMin= 1.03D-01 ExpMax= 1.53D+04 ExpMxC= 5.22D+02 IAcc=3 IRadAn=         5 AccDes= 0.00D+00
 Harris functional with IExCor=  419 and IRadAn=       5 diagonalized for initial guess.
 HarFok:  IExCor=  419 AccDes= 0.00D+00 IRadAn=         5 IDoV= 1 UseB2=F ITyADJ=14
 ICtDFT=  3500011 ScaDFX=  1.000000  1.000000  1.000000  1.000000
 FoFCou: FMM=F IPFlag=           0 FMFlag=      100000 FMFlg1=           0
         NFxFlg=           0 DoJE=T BraDBF=F KetDBF=T FulRan=T
         wScrn=  0.000000 ICntrl=       500 IOpCl=  0 I1Cent=   200000004 NGrid=           0
         NMat0=    1 NMatS0=      1 NMatT0=    0 NMatD0=    1 NMtDS0=    0 NMtDT0=    0
 Symmetry not used in FoFCou.
 Initial guess <Sx>= 0.0000 <Sy>= 0.0000 <Sz>= 0.5000 <S**2>= 0.7500 S= 0.5000
 Requested convergence on RMS density matrix=1.00D-08 within 500 cycles.
 Requested convergence on MAX density matrix=1.00D-06.
 Requested convergence on             energy=1.00D-06.
 No special actions if energy rises.
 Integral accuracy reduced to 1.0D-05 until final iterations.
 Initial convergence to 1.0D-05 achieved.  Increase integral accuracy.
 SCF Done:  E(UB2PLYPD3) =  -307.569199375     A.U. after   22 cycles
            NFock= 22  Conv=0.82D-08     -V/T= 2.0043
 <Sx>= 0.0000 <Sy>= 0.0000 <Sz>= 0.5000 <S**2>= 0.7778 S= 0.5138
 <L.S>=  0.00000000000    
 Annihilation of the first spin contaminant:
 S**2 before annihilation     0.7778,   after     0.7505
 DoSCS=T DFT=T ScalE2(SS,OS)=  0.270000  0.270000
 ExpMin= 1.03D-01 ExpMax= 1.53D+04 ExpMxC= 5.22D+02 IAcc=3 IRadAn=         5 AccDes= 0.00D+00
 HarFok:  IExCor=  205 AccDes= 0.00D+00 IRadAn=         5 IDoV=-2 UseB2=F ITyADJ=14
 ICtDFT= 12500011 ScaDFX=  1.000000  1.000000  1.000000  1.000000
 Range of M.O.s used for correlation:     7   306
 NBasis=   306 NAE=    25 NBE=    24 NFC=     6 NFV=     0
 NROrb=    300 NOA=    19 NOB=    18 NVA=   281 NVB=   282

 **** Warning!!: The largest alpha MO coefficient is  0.12022008D+02


 **** Warning!!: The largest beta MO coefficient is  0.12021963D+02

 DoSCS=T DFT=T ScalE2(SS,OS)=  0.270000  0.270000
 Disk-based method using ON**2 memory for 19 occupieds at a time.
 Permanent disk used for amplitudes=    70282596 words.
 Estimated scratch disk usage=  1343867196 words.
 Actual    scratch disk usage=  1299167548 words.
 JobTyp=2 Pass  1:  I=   7 to  25 NPSUse= 40 ParTrn=T ParDer=T DoDerP=T.
 (rs|ai) integrals will be sorted in core.
 Actual    scratch disk usage=  1299167548 words.
 JobTyp=3 Pass  1:  I=   7 to  24 NPSUse= 40 ParTrn=T ParDer=T DoDerP=T.
 (rs|ai) integrals will be sorted in core.
 Spin components of T(2) and E(2):
     alpha-alpha T2 =       0.6500749715D-01 E2=     -0.4677533172D-01
     alpha-beta  T2 =       0.4013271237D+00 E2=     -0.2905351634D+00
     beta-beta   T2 =       0.7063878924D-01 E2=     -0.4580503862D-01
 (S**2,0)=  0.77776D+00           (S**2,1)=  0.74911D+00
 Scaling Projection term by:   0.270000
 E(PUHF)=      -0.30757557595D+03        E(PMP2)=      -0.30795315849D+03
 E2(B2PLYPD3) =    -0.3831155337D+00 E(B2PLYPD3) =    -0.30795231490908D+03
 G2DrvN: will do    16 centers at a time, making    1 passes.
 Calling FoFCou, ICntrl=  3107 FMM=F I1Cent=   0 AccDes= 0.00D+00.
 End of G2Drv F.D. properties file   721 does not exist.
 End of G2Drv F.D. properties file   722 does not exist.
 End of G2Drv F.D. properties file   788 does not exist.
          IDoAtm=111111111111111
          Differentiating once with respect to electric field.
                with respect to dipole field.
          Differentiating once with respect to nuclear coordinates.
 Keep R1 and R2 ints in memory in canonical form, NReq=2252447571.
          There are    48 degrees of freedom in the 1st order CPHF.  IDoFFX=6 NUNeed=    48.
     45 vectors produced by pass  0 Test12= 2.87D-14 2.08D-09 XBig12= 7.44D+01 4.93D+00.
 AX will form    45 AO Fock derivatives at one time.
     45 vectors produced by pass  1 Test12= 2.87D-14 2.08D-09 XBig12= 8.74D+00 5.52D-01.
     45 vectors produced by pass  2 Test12= 2.87D-14 2.08D-09 XBig12= 3.20D-01 9.41D-02.
     45 vectors produced by pass  3 Test12= 2.87D-14 2.08D-09 XBig12= 6.28D-03 7.79D-03.
     45 vectors produced by pass  4 Test12= 2.87D-14 2.08D-09 XBig12= 9.56D-05 9.80D-04.
     45 vectors produced by pass  5 Test12= 2.87D-14 2.08D-09 XBig12= 1.21D-06 9.69D-05.
     45 vectors produced by pass  6 Test12= 2.87D-14 2.08D-09 XBig12= 9.91D-09 9.45D-06.
     20 vectors produced by pass  7 Test12= 2.87D-14 2.08D-09 XBig12= 6.00D-11 7.61D-07.
      4 vectors produced by pass  8 Test12= 2.87D-14 2.08D-09 XBig12= 4.43D-13 6.72D-08.
      2 vectors produced by pass  9 Test12= 2.87D-14 2.08D-09 XBig12= 3.58D-15 5.55D-09.
 InvSVY:  IOpt=1 It=  1 EMax= 2.36D-15
 Solved reduced A of dimension   341 with    48 vectors.
 End of Minotr F.D. properties file   721 does not exist.
 End of Minotr F.D. properties file   722 does not exist.
 End of Minotr F.D. properties file   788 does not exist.
 MDV= 10737418240.
 DoSCS=T DFT=T ScalE2(SS,OS)=  0.270000  0.270000
 Form MO integral derivatives with frozen-active canonical formalism.
 Discarding MO integrals.
 Reordered first order wavefunction length =    283226920
 In DefCFB: NBatch=  1 ICI= 25 ICA=282 LFMax= 71
            Large arrays: LIAPS=  5824508040 LIARS=  1191802500 words.
 In DefCFB: NBatch=  1 ICI= 25 ICA=282 LFMax= 71
            Large arrays: LIAPS=  5824508040 LIARS=  1191802500 words.
 Semi-Direct transformation.
 ModeAB=           4 MOrb=            25 LenV=   10734620317
 LASXX=    339668775 LTotXX=   339668775 LenRXX=   684905625
 LTotAB=   345236850 MaxLAS=   418064850 LenRXY=           0
 NonZer=  1024574400 LenScr=  1542889472 LnRSAI=   418064850
 LnScr1=   629557248 LExtra=           0 Total=   3275417195
 MaxDsk=          -1 SrtSym=           T ITran=            4
 JobTyp=1 Pass  1:  I=   1 to  25.
 (rs|ai) integrals will be sorted in core.
 ModeAB=           4 MOrb=            24 LenV=   10734620317
 LASXX=    326802342 LTotXX=   326802342 LenRXX=   606843570
 LTotAB=   280041228 MaxLAS=   401342256 LenRXY=           0
 NonZer=   933645912 LenScr=  1405961216 LnRSAI=   401342256
 LnScr1=   604375040 LExtra=           0 Total=   3018522082
 MaxDsk=          -1 SrtSym=           T ITran=            4
 JobTyp=2 Pass  1:  I=   1 to  24.
 (rs|ai) integrals will be sorted in core.
 DoSCS=T DFT=T ScalE2(SS,OS)=  0.270000  0.270000
 Spin components of T(2) and E(2):
     alpha-alpha T2 =       0.6500749715D-01 E2=     -0.4677533172D-01
     alpha-beta  T2 =       0.4013271237D+00 E2=     -0.2905351634D+00
     beta-beta   T2 =       0.7063878924D-01 E2=     -0.4580503862D-01
 E2(B2PLYPD3) =    -0.3831155337D+00 E(B2PLYPD3) =    -0.30795231490908D+03
 (S**2,0)=  0.77776D+00           (S**2,1)=  0.74911D+00
 Scaling Projection term by:   0.270000
 E(PUHF)=      -0.30757557595D+03        E(PMP2)=      -0.30795315849D+03
          IDoAtm=111111111111111
          Differentiating once with respect to electric field.
                with respect to dipole field.
          Differentiating once with respect to nuclear coordinates.
 Keep R1 and R2 ints in memory in canonical form, NReq=2252583484.
          There are     1 degrees of freedom in the 1st order CPHF.  IDoFFX=0 NUNeed=     1.
 LinEq1:  Iter=  0 NonCon=     1 RMS=9.84D-04 Max=6.85D-02 NDo=     1
 AX will form     1 AO Fock derivatives at one time.
 LinEq1:  Iter=  1 NonCon=     1 RMS=3.51D-04 Max=1.58D-02 NDo=     1
 LinEq1:  Iter=  2 NonCon=     1 RMS=2.25D-04 Max=1.36D-02 NDo=     1
 LinEq1:  Iter=  3 NonCon=     1 RMS=1.29D-04 Max=8.91D-03 NDo=     1
 LinEq1:  Iter=  4 NonCon=     1 RMS=8.15D-05 Max=4.85D-03 NDo=     1
 LinEq1:  Iter=  5 NonCon=     1 RMS=3.32D-05 Max=8.83D-04 NDo=     1
 LinEq1:  Iter=  6 NonCon=     1 RMS=2.46D-05 Max=9.26D-04 NDo=     1
 LinEq1:  Iter=  7 NonCon=     1 RMS=1.03D-05 Max=3.22D-04 NDo=     1
 LinEq1:  Iter=  8 NonCon=     1 RMS=6.69D-06 Max=1.73D-04 NDo=     1
 LinEq1:  Iter=  9 NonCon=     1 RMS=2.73D-06 Max=7.53D-05 NDo=     1
 LinEq1:  Iter= 10 NonCon=     1 RMS=1.06D-06 Max=2.19D-05 NDo=     1
 LinEq1:  Iter= 11 NonCon=     1 RMS=4.29D-07 Max=6.10D-06 NDo=     1
 LinEq1:  Iter= 12 NonCon=     1 RMS=1.79D-07 Max=3.25D-06 NDo=     1
 LinEq1:  Iter= 13 NonCon=     1 RMS=8.78D-08 Max=1.92D-06 NDo=     1
 LinEq1:  Iter= 14 NonCon=     1 RMS=2.59D-08 Max=6.50D-07 NDo=     1
 LinEq1:  Iter= 15 NonCon=     1 RMS=7.12D-09 Max=1.86D-07 NDo=     1
 LinEq1:  Iter= 16 NonCon=     1 RMS=2.21D-09 Max=4.32D-08 NDo=     1
 LinEq1:  Iter= 17 NonCon=     1 RMS=8.08D-10 Max=1.93D-08 NDo=     1
 LinEq1:  Iter= 18 NonCon=     1 RMS=3.50D-10 Max=1.18D-08 NDo=     1
 LinEq1:  Iter= 19 NonCon=     1 RMS=1.20D-10 Max=5.02D-09 NDo=     1
 LinEq1:  Iter= 20 NonCon=     1 RMS=4.56D-11 Max=2.35D-09 NDo=     1
 LinEq1:  Iter= 21 NonCon=     0 RMS=1.49D-11 Max=5.90D-10 NDo=     1
 Linear equations converged to 1.000D-10 1.000D-09 after    21 iterations.
 End of Minotr F.D. properties file   721 does not exist.
 End of Minotr F.D. properties file   722 does not exist.
 End of Minotr F.D. properties file   788 does not exist.
 Symmetrizing basis deriv contribution to polar:
 IMax=3 JMax=2 DiffMx= 0.00D+00
 G2DrvN: will do    16 centers at a time, making    1 passes.
 Calling FoFCou, ICntrl=  3107 FMM=F I1Cent=   0 AccDes= 0.00D+00.
 End of G2Drv F.D. properties file   721 does not exist.
 End of G2Drv F.D. properties file   722 does not exist.
 End of G2Drv F.D. properties file   788 does not exist.
 DoSCS=T DFT=T ScalE2(SS,OS)=  0.270000  0.270000
 R2 and R3 integrals will be kept in memory, NReq=  3583069605.
 DD1Dir will call FoFMem   1 times, MxPair=      1776
 NAB=   600 NAA=   300 NBB=   276.
 Discarding MO integrals.

 **********************************************************************

            Population analysis using the SCF Density.

 **********************************************************************

 Alpha  occ. eigenvalues --  -19.78447 -19.78129 -10.65769 -10.65484 -10.63263
 Alpha  occ. eigenvalues --  -10.61896  -1.27086  -1.02223  -0.92891  -0.81836
 Alpha  occ. eigenvalues --   -0.77528  -0.65646  -0.60316  -0.55589  -0.54238
 Alpha  occ. eigenvalues --   -0.53427  -0.51639  -0.50337  -0.48784  -0.46592
 Alpha  occ. eigenvalues --   -0.43775  -0.36930  -0.36714  -0.32465  -0.29936
 Alpha virt. eigenvalues --    0.05983   0.07728   0.09852   0.11333   0.13158
 Alpha virt. eigenvalues --    0.14127   0.15073   0.15424   0.17136   0.17641
 Alpha virt. eigenvalues --    0.18653   0.22606   0.26620   0.29025   0.29528
 Alpha virt. eigenvalues --    0.31355   0.32003   0.36234   0.37044   0.39016
 Alpha virt. eigenvalues --    0.41059   0.42867   0.45030   0.46849   0.48458
 Alpha virt. eigenvalues --    0.49350   0.50989   0.51385   0.51821   0.52254
 Alpha virt. eigenvalues --    0.52626   0.53697   0.54330   0.57136   0.57374
 Alpha virt. eigenvalues --    0.60540   0.61126   0.64397   0.68152   0.68595
 Alpha virt. eigenvalues --    0.69835   0.71312   0.72663   0.73487   0.76556
 Alpha virt. eigenvalues --    0.79568   0.80747   0.84957   0.87805   0.89007
 Alpha virt. eigenvalues --    0.91348   0.93563   0.95906   0.96827   0.99171
 Alpha virt. eigenvalues --    0.99644   1.02614   1.05412   1.06494   1.07435
 Alpha virt. eigenvalues --    1.07958   1.09674   1.10828   1.12785   1.14427
 Alpha virt. eigenvalues --    1.16615   1.18551   1.19198   1.19744   1.23467
 Alpha virt. eigenvalues --    1.26662   1.28454   1.30569   1.31883   1.32467
 Alpha virt. eigenvalues --    1.35000   1.37218   1.38440   1.39422   1.39812
 Alpha virt. eigenvalues --    1.39994   1.42647   1.45944   1.46843   1.50701
 Alpha virt. eigenvalues --    1.52893   1.56917   1.57267   1.59826   1.62771
 Alpha virt. eigenvalues --    1.64430   1.71571   1.78629   1.81622   1.83788
 Alpha virt. eigenvalues --    1.94383   1.98959   2.01641   2.04944   2.12444
 Alpha virt. eigenvalues --    2.17535   2.20019   2.21605   2.22653   2.29238
 Alpha virt. eigenvalues --    2.35279   2.37509   2.38725   2.40101   2.41670
 Alpha virt. eigenvalues --    2.42955   2.49207   2.50290   2.54101   2.56127
 Alpha virt. eigenvalues --    2.61765   2.64889   2.68640   2.71436   2.73149
 Alpha virt. eigenvalues --    2.74691   2.80899   2.83285   2.85463   2.86295
 Alpha virt. eigenvalues --    2.86403   2.90256   2.91226   2.92679   2.93342
 Alpha virt. eigenvalues --    2.95519   2.96832   2.98535   3.02000   3.03713
 Alpha virt. eigenvalues --    3.04101   3.04607   3.06147   3.09966   3.10587
 Alpha virt. eigenvalues --    3.11373   3.12669   3.13471   3.15506   3.16385
 Alpha virt. eigenvalues --    3.17939   3.20787   3.21275   3.22203   3.27269
 Alpha virt. eigenvalues --    3.28274   3.32342   3.35525   3.37341   3.38337
 Alpha virt. eigenvalues --    3.39735   3.42585   3.43207   3.43596   3.50828
 Alpha virt. eigenvalues --    3.52644   3.52977   3.53828   3.54730   3.56263
 Alpha virt. eigenvalues --    3.57164   3.58340   3.60232   3.61686   3.66040
 Alpha virt. eigenvalues --    3.67630   3.70254   3.73402   3.74553   3.77231
 Alpha virt. eigenvalues --    3.79035   3.82667   3.85739   3.87290   3.87751
 Alpha virt. eigenvalues --    3.90368   3.92337   3.93084   3.95405   3.96500
 Alpha virt. eigenvalues --    3.98767   4.00004   4.01478   4.04596   4.05194
 Alpha virt. eigenvalues --    4.09369   4.11536   4.12341   4.13830   4.16383
 Alpha virt. eigenvalues --    4.18420   4.19804   4.20624   4.20759   4.21837
 Alpha virt. eigenvalues --    4.25542   4.26297   4.27461   4.35103   4.36573
 Alpha virt. eigenvalues --    4.39357   4.41245   4.42122   4.44959   4.48172
 Alpha virt. eigenvalues --    4.50600   4.55345   4.58699   4.64301   4.69287
 Alpha virt. eigenvalues --    4.79097   4.81531   4.82740   4.85542   4.89016
 Alpha virt. eigenvalues --    4.89711   4.94733   4.97125   4.99850   5.01395
 Alpha virt. eigenvalues --    5.02863   5.04206   5.06029   5.10000   5.13973
 Alpha virt. eigenvalues --    5.16309   5.18316   5.25452   5.28973   5.30032
 Alpha virt. eigenvalues --    5.31384   5.33188   5.34196   5.34825   5.36391
 Alpha virt. eigenvalues --    5.37876   5.40030   5.40842   5.43865   5.44110
 Alpha virt. eigenvalues --    5.47549   5.52029   5.65294   5.68479   5.79821
 Alpha virt. eigenvalues --    5.88014   5.93422   5.97381   5.98133   5.98446
 Alpha virt. eigenvalues --    6.03261   6.07871   6.09611   6.24995   6.30376
 Alpha virt. eigenvalues --    6.34089   6.38888   6.51251   6.64805   6.76588
 Alpha virt. eigenvalues --    6.79080   6.84043   6.97427   7.05544   7.06672
 Alpha virt. eigenvalues --    7.21115   7.41304   7.42930   7.59356   7.79420
 Alpha virt. eigenvalues --    9.72607  10.00139  10.80857  13.44326  13.97842
 Alpha virt. eigenvalues --   14.53568
  Beta  occ. eigenvalues --  -19.78318 -19.76712 -10.65776 -10.63961 -10.63233
  Beta  occ. eigenvalues --  -10.62107  -1.25412  -0.99663  -0.90684  -0.81582
  Beta  occ. eigenvalues --   -0.77168  -0.61984  -0.57964  -0.54680  -0.53928
  Beta  occ. eigenvalues --   -0.51700  -0.50405  -0.49901  -0.46314  -0.45238
  Beta  occ. eigenvalues --   -0.43063  -0.35654  -0.33694  -0.31998
  Beta virt. eigenvalues --   -0.04872   0.06983   0.07941   0.09913   0.11584
  Beta virt. eigenvalues --    0.13641   0.14286   0.15322   0.15578   0.17295
  Beta virt. eigenvalues --    0.17808   0.19107   0.23030   0.27073   0.29313
  Beta virt. eigenvalues --    0.29584   0.31444   0.32094   0.37236   0.37517
  Beta virt. eigenvalues --    0.40045   0.41537   0.43187   0.45104   0.47647
  Beta virt. eigenvalues --    0.49337   0.50246   0.51135   0.51622   0.51878
  Beta virt. eigenvalues --    0.52361   0.52710   0.54192   0.54741   0.57435
  Beta virt. eigenvalues --    0.59396   0.61370   0.62215   0.64934   0.68308
  Beta virt. eigenvalues --    0.69005   0.70582   0.71603   0.73287   0.74199
  Beta virt. eigenvalues --    0.77132   0.79819   0.81178   0.85547   0.88422
  Beta virt. eigenvalues --    0.89367   0.91579   0.93695   0.96102   0.97082
  Beta virt. eigenvalues --    0.99323   0.99867   1.03030   1.05655   1.06618
  Beta virt. eigenvalues --    1.07597   1.08266   1.09902   1.11185   1.12980
  Beta virt. eigenvalues --    1.14595   1.16860   1.19282   1.19683   1.19966
  Beta virt. eigenvalues --    1.23700   1.27397   1.28845   1.31055   1.32181
  Beta virt. eigenvalues --    1.32755   1.35309   1.37495   1.38688   1.39589
  Beta virt. eigenvalues --    1.39926   1.40102   1.42969   1.46449   1.47567
  Beta virt. eigenvalues --    1.51320   1.53437   1.57305   1.57668   1.60087
  Beta virt. eigenvalues --    1.63027   1.64934   1.72660   1.79221   1.82767
  Beta virt. eigenvalues --    1.84214   1.95258   1.99699   2.03145   2.05902
  Beta virt. eigenvalues --    2.12804   2.17509   2.21636   2.22226   2.23216
  Beta virt. eigenvalues --    2.29879   2.35754   2.37733   2.38922   2.41039
  Beta virt. eigenvalues --    2.42959   2.44035   2.50176   2.50539   2.54637
  Beta virt. eigenvalues --    2.56419   2.62245   2.65036   2.68838   2.71719
  Beta virt. eigenvalues --    2.73613   2.75091   2.81748   2.83747   2.86211
  Beta virt. eigenvalues --    2.86359   2.86916   2.90729   2.91696   2.92725
  Beta virt. eigenvalues --    2.93655   2.96195   2.96790   2.98851   3.02234
  Beta virt. eigenvalues --    3.04266   3.04645   3.04926   3.06780   3.10220
  Beta virt. eigenvalues --    3.10836   3.11750   3.13300   3.13884   3.16142
  Beta virt. eigenvalues --    3.16517   3.18241   3.21157   3.21627   3.22866
  Beta virt. eigenvalues --    3.28242   3.29052   3.34180   3.36410   3.38000
  Beta virt. eigenvalues --    3.39077   3.40755   3.42672   3.43396   3.43697
  Beta virt. eigenvalues --    3.50851   3.52899   3.53401   3.53938   3.54712
  Beta virt. eigenvalues --    3.56799   3.57432   3.58673   3.60750   3.62111
  Beta virt. eigenvalues --    3.66131   3.67980   3.70798   3.73784   3.75019
  Beta virt. eigenvalues --    3.77925   3.79553   3.82726   3.85893   3.87480
  Beta virt. eigenvalues --    3.88016   3.90252   3.92590   3.93431   3.95725
  Beta virt. eigenvalues --    3.96915   3.99064   4.00467   4.01939   4.04741
  Beta virt. eigenvalues --    4.05956   4.09548   4.12044   4.12830   4.13842
  Beta virt. eigenvalues --    4.16713   4.18697   4.20114   4.20871   4.21190
  Beta virt. eigenvalues --    4.22448   4.26178   4.26629   4.27855   4.35321
  Beta virt. eigenvalues --    4.37025   4.39814   4.41870   4.42674   4.45996
  Beta virt. eigenvalues --    4.48488   4.50979   4.56044   4.59441   4.64884
  Beta virt. eigenvalues --    4.70087   4.79628   4.81760   4.83084   4.85940
  Beta virt. eigenvalues --    4.89580   4.90157   4.94869   4.97586   4.99998
  Beta virt. eigenvalues --    5.01596   5.03116   5.04458   5.06205   5.10314
  Beta virt. eigenvalues --    5.14680   5.16555   5.18974   5.25689   5.29326
  Beta virt. eigenvalues --    5.30818   5.31626   5.33719   5.34691   5.35166
  Beta virt. eigenvalues --    5.36610   5.38294   5.40804   5.40999   5.44079
  Beta virt. eigenvalues --    5.44576   5.47817   5.52393   5.66774   5.69150
  Beta virt. eigenvalues --    5.80161   5.88616   5.93536   5.97625   5.98483
  Beta virt. eigenvalues --    5.98743   6.04018   6.08426   6.10332   6.25534
  Beta virt. eigenvalues --    6.30999   6.36102   6.39497   6.52610   6.65780
  Beta virt. eigenvalues --    6.79082   6.80357   6.85061   6.98956   7.06106
  Beta virt. eigenvalues --    7.07979   7.23136   7.42153   7.44241   7.61136
  Beta virt. eigenvalues --    7.79921   9.73802  10.00559  10.81893  13.44327
  Beta virt. eigenvalues --   13.97951  14.53803
          Condensed to atoms (all electrons):
               1          2          3          4          5          6
     1  C    5.199121   0.622837  -0.003985   0.004201   0.000297  -0.000509
     2  C    0.622837   4.959843  -0.002136   0.000127   0.000043   0.000257
     3  C   -0.003985  -0.002136   4.609213   0.396036   0.395132   0.412658
     4  H    0.004201   0.000127   0.396036   0.670395  -0.035995  -0.056788
     5  H    0.000297   0.000043   0.395132  -0.035995   0.593545  -0.027077
     6  H   -0.000509   0.000257   0.412658  -0.056788  -0.027077   0.606729
     7  O    0.000328  -0.000378   0.298760  -0.050112  -0.026961  -0.036607
     8  O   -0.077681   0.000166  -0.041824  -0.003689   0.006968   0.004265
     9  H    0.190223  -0.012132   0.004397   0.004578  -0.000941   0.000266
    10  H   -0.050044   0.391321  -0.000047  -0.000110  -0.000003   0.000009
    11  H   -0.053224   0.410913  -0.001964  -0.002350  -0.000247   0.000593
    12  C    0.328148  -0.043251   0.000113  -0.000043  -0.000020  -0.000016
    13  H   -0.041474  -0.001417  -0.000015   0.000034  -0.000002  -0.000001
    14  H   -0.037115  -0.002888  -0.000006   0.000052   0.000000  -0.000002
    15  H   -0.041892   0.000146   0.000124  -0.000184   0.000009   0.000003
               7          8          9         10         11         12
     1  C    0.000328  -0.077681   0.190223  -0.050044  -0.053224   0.328148
     2  C   -0.000378   0.000166  -0.012132   0.391321   0.410913  -0.043251
     3  C    0.298760  -0.041824   0.004397  -0.000047  -0.001964   0.000113
     4  H   -0.050112  -0.003689   0.004578  -0.000110  -0.002350  -0.000043
     5  H   -0.026961   0.006968  -0.000941  -0.000003  -0.000247  -0.000020
     6  H   -0.036607   0.004265   0.000266   0.000009   0.000593  -0.000016
     7  O    7.952275   0.071542  -0.031867   0.000274   0.014405  -0.000005
     8  O    0.071542   8.032369   0.234128  -0.000366  -0.000787   0.002574
     9  H   -0.031867   0.234128   0.398310   0.002204  -0.003111  -0.010390
    10  H    0.000274  -0.000366   0.002204   0.560741  -0.033146  -0.006154
    11  H    0.014405  -0.000787  -0.003111  -0.033146   0.505221   0.004919
    12  C   -0.000005   0.002574  -0.010390  -0.006154   0.004919   4.769745
    13  H   -0.000004   0.000347  -0.000943  -0.000071  -0.000275   0.412983
    14  H   -0.000019  -0.000217   0.001778   0.004940  -0.000356   0.395760
    15  H   -0.000019   0.001083  -0.000403  -0.000132  -0.000089   0.409466
              13         14         15
     1  C   -0.041474  -0.037115  -0.041892
     2  C   -0.001417  -0.002888   0.000146
     3  C   -0.000015  -0.000006   0.000124
     4  H    0.000034   0.000052  -0.000184
     5  H   -0.000002   0.000000   0.000009
     6  H   -0.000001  -0.000002   0.000003
     7  O   -0.000004  -0.000019  -0.000019
     8  O    0.000347  -0.000217   0.001083
     9  H   -0.000943   0.001778  -0.000403
    10  H   -0.000071   0.004940  -0.000132
    11  H   -0.000275  -0.000356  -0.000089
    12  C    0.412983   0.395760   0.409466
    13  H    0.575494  -0.027058  -0.035426
    14  H   -0.027058   0.588760  -0.027071
    15  H   -0.035426  -0.027071   0.581495
          Atomic-Atomic Spin Densities.
               1          2          3          4          5          6
     1  C    0.813502  -0.012749   0.000559  -0.003931   0.000124   0.001045
     2  C   -0.012749  -0.152069  -0.000138   0.000466  -0.000040  -0.000125
     3  C    0.000559  -0.000138  -0.004417   0.003854   0.000403  -0.002161
     4  H   -0.003931   0.000466   0.003854   0.000698  -0.000722  -0.000770
     5  H    0.000124  -0.000040   0.000403  -0.000722  -0.001454   0.000976
     6  H    0.001045  -0.000125  -0.002161  -0.000770   0.000976   0.002472
     7  O    0.011514  -0.001871   0.000230  -0.000773   0.000159  -0.000320
     8  O   -0.086093   0.005989  -0.001686   0.003279  -0.000196  -0.000413
     9  H    0.058224  -0.002808   0.000624  -0.003048   0.000109   0.001222
    10  H   -0.013247  -0.003673   0.000060  -0.000297   0.000010   0.000019
    11  H   -0.006628   0.012783  -0.000315   0.001104  -0.000088  -0.000157
    12  C   -0.032604   0.006271   0.000008   0.000349  -0.000003  -0.000061
    13  H   -0.004702   0.000345   0.000002   0.000007   0.000000  -0.000001
    14  H   -0.007335  -0.001645   0.000006  -0.000067   0.000000   0.000006
    15  H   -0.005012   0.000285  -0.000005   0.000036  -0.000001  -0.000009
               7          8          9         10         11         12
     1  C    0.011514  -0.086093   0.058224  -0.013247  -0.006628  -0.032604
     2  C   -0.001871   0.005989  -0.002808  -0.003673   0.012783   0.006271
     3  C    0.000230  -0.001686   0.000624   0.000060  -0.000315   0.000008
     4  H   -0.000773   0.003279  -0.003048  -0.000297   0.001104   0.000349
     5  H    0.000159  -0.000196   0.000109   0.000010  -0.000088  -0.000003
     6  H   -0.000320  -0.000413   0.001222   0.000019  -0.000157  -0.000061
     7  O    0.043568  -0.035734   0.009343   0.000379  -0.003567  -0.000445
     8  O   -0.035734   0.508066  -0.042201  -0.000823   0.002649   0.006169
     9  H    0.009343  -0.042201  -0.090626   0.001151  -0.000632  -0.005760
    10  H    0.000379  -0.000823   0.001151   0.088196  -0.009911  -0.004733
    11  H   -0.003567   0.002649  -0.000632  -0.009911   0.025727   0.001251
    12  C   -0.000445   0.006169  -0.005760  -0.004733   0.001251   0.020941
    13  H   -0.000011   0.000273  -0.000336  -0.000183   0.000032   0.005608
    14  H    0.000038  -0.000472   0.000712   0.005732  -0.000432  -0.007008
    15  H   -0.000017   0.000305  -0.000236  -0.000209   0.000040   0.005931
              13         14         15
     1  C   -0.004702  -0.007335  -0.005012
     2  C    0.000345  -0.001645   0.000285
     3  C    0.000002   0.000006  -0.000005
     4  H    0.000007  -0.000067   0.000036
     5  H    0.000000   0.000000  -0.000001
     6  H   -0.000001   0.000006  -0.000009
     7  O   -0.000011   0.000038  -0.000017
     8  O    0.000273  -0.000472   0.000305
     9  H   -0.000336   0.000712  -0.000236
    10  H   -0.000183   0.005732  -0.000209
    11  H    0.000032  -0.000432   0.000040
    12  C    0.005608  -0.007008   0.005931
    13  H    0.005244  -0.001946  -0.000718
    14  H   -0.001946   0.058072  -0.002343
    15  H   -0.000718  -0.002343   0.005534
 Mulliken charges and spin densities:
               1          2
     1  C   -0.039231   0.712669
     2  C   -0.323452  -0.148979
     3  C   -0.066457  -0.002977
     4  H    0.073849   0.000185
     5  H    0.095252  -0.000720
     6  H    0.096220   0.001723
     7  O   -0.191614   0.022493
     8  O   -0.228878   0.359114
     9  H    0.223903  -0.074263
    10  H    0.130584   0.062471
    11  H    0.159499   0.021857
    12  C   -0.263829  -0.004085
    13  H    0.117827   0.003614
    14  H    0.103439   0.043319
    15  H    0.112888   0.003579
 Sum of Mulliken charges =  -0.00000   1.00000
 Mulliken charges and spin densities with hydrogens summed into heavy atoms:
               1          2
     1  C   -0.039231   0.712669
     2  C   -0.033369  -0.064651
     3  C    0.198864  -0.001789
     7  O   -0.191614   0.022493
     8  O   -0.004975   0.284851
    12  C    0.070326   0.046428
 APT charges:
               1
     1  C    0.464294
     2  C   -0.289300
     3  C    0.426972
     4  H   -0.035837
     5  H   -0.006809
     6  H   -0.030145
     7  O   -0.410219
     8  O    0.098582
     9  H   -0.301393
    10  H    0.041383
    11  H    0.085935
    12  C   -0.040074
    13  H    0.016163
    14  H   -0.033698
    15  H    0.014147
 Sum of APT charges =  -0.00000
 APT charges with hydrogens summed into heavy atoms:
               1
     1  C    0.464294
     2  C   -0.161982
     3  C    0.354181
     7  O   -0.410219
     8  O   -0.202811
    12  C   -0.043462
 Electronic spatial extent (au):  <R**2>=            845.7636
 Charge=              0.0000 electrons
 Dipole moment (field-independent basis, Debye):
    X=              1.5987    Y=              0.9639    Z=              2.0659  Tot=              2.7844
 Quadrupole moment (field-independent basis, Debye-Ang):
   XX=            -32.4721   YY=            -37.2995   ZZ=            -39.8190
   XY=             -2.2398   XZ=             -2.7090   YZ=             -0.8747
 Traceless Quadrupole moment (field-independent basis, Debye-Ang):
   XX=              4.0581   YY=             -0.7693   ZZ=             -3.2888
   XY=             -2.2398   XZ=             -2.7090   YZ=             -0.8747
 Octapole moment (field-independent basis, Debye-Ang**2):
  XXX=             -9.1002  YYY=              0.7427  ZZZ=             -0.9270  XYY=             -0.2152
  XXY=              0.3450  XXZ=              7.8511  XZZ=             -4.2924  YZZ=             -2.8906
  YYZ=             -0.9932  XYZ=              0.9199
 Hexadecapole moment (field-independent basis, Debye-Ang**3):
 XXXX=           -742.2216 YYYY=           -209.5247 ZZZZ=           -114.4942 XXXY=             -2.4413
 XXXZ=             -4.5420 YYYX=              1.6789 YYYZ=             -0.8295 ZZZX=              4.9443
 ZZZY=              1.0224 XXYY=           -155.2662 XXZZ=           -153.7855 YYZZ=            -55.9584
 XXYZ=              3.1918 YYXZ=             -0.1524 ZZXY=             -3.4607
 N-N= 2.353944403172D+02 E-N=-1.191036240218D+03  KE= 3.062410189178D+02
  Exact polarizability:  96.540   2.767  68.986   1.359  -1.418  46.917
 Approx polarizability:  80.328  -1.437  81.128   3.497  -0.996  55.066
                          Isotropic Fermi Contact Couplings
        Atom                 a.u.       MegaHertz       Gauss      10(-4) cm-1
     1  C(13)              0.16099     180.98844      64.58118      60.37124
     2  C(13)              0.01372      15.42883       5.50539       5.14650
     3  C(13)             -0.00306      -3.44536      -1.22939      -1.14925
     4  H(1)               0.00209       9.33496       3.33095       3.11381
     5  H(1)              -0.00006      -0.26459      -0.09441      -0.08826
     6  H(1)               0.00045       2.01675       0.71963       0.67272
     7  O(17)              0.01414      -8.57170      -3.05860      -2.85921
     8  O(17)              0.03435     -20.82384      -7.43046      -6.94608
     9  H(1)              -0.02433    -108.74660     -38.80349     -36.27396
    10  H(1)               0.02493     111.44633      39.76682      37.17450
    11  H(1)               0.01276      57.04719      20.35586      19.02890
    12  C(13)              0.01696      19.06898       6.80429       6.36073
    13  H(1)               0.00148       6.63665       2.36812       2.21375
    14  H(1)               0.01789      79.96140      28.53222      26.67225
    15  H(1)               0.00152       6.78858       2.42233       2.26443
 --------------------------------------------------------
       Center         ----  Spin Dipole Couplings  ----
                      3XX-RR        3YY-RR        3ZZ-RR
 --------------------------------------------------------
     1   Atom        0.362012     -0.052246     -0.309766
     2   Atom       -0.012394      0.061814     -0.049420
     3   Atom        0.003363     -0.004731      0.001368
     4   Atom        0.000378     -0.003463      0.003086
     5   Atom        0.002334     -0.000921     -0.001412
     6   Atom        0.003122     -0.004191      0.001069
     7   Atom        0.257271     -0.123127     -0.134143
     8   Atom        0.670608      0.019411     -0.690019
     9   Atom        0.163882     -0.053954     -0.109928
    10   Atom       -0.000303      0.007009     -0.006706
    11   Atom       -0.002413      0.011387     -0.008973
    12   Atom        0.045189     -0.022223     -0.022966
    13   Atom        0.005465      0.002664     -0.008129
    14   Atom        0.007842     -0.000444     -0.007398
    15   Atom       -0.002242     -0.000198      0.002440
 --------------------------------------------------------
                        XY            XZ            YZ
 --------------------------------------------------------
     1   Atom        0.492406      0.170480      0.122592
     2   Atom        0.006459      0.012802     -0.008340
     3   Atom       -0.003856     -0.004483      0.003354
     4   Atom       -0.001682     -0.004791      0.004615
     5   Atom       -0.002952     -0.002970      0.002192
     6   Atom       -0.000194     -0.005932      0.000147
     7   Atom        0.221083      0.107778      0.063060
     8   Atom        1.091756      0.402507      0.296107
     9   Atom        0.138772      0.060036      0.030484
    10   Atom        0.005188      0.001357      0.000089
    11   Atom       -0.008512      0.002969     -0.005045
    12   Atom       -0.029252      0.027480     -0.010247
    13   Atom       -0.011123     -0.003038      0.004418
    14   Atom        0.001311      0.005143     -0.000415
    15   Atom       -0.005167      0.007821     -0.010399
 --------------------------------------------------------


 ---------------------------------------------------------------------------------
              Anisotropic Spin Dipole Couplings in Principal Axis System
 ---------------------------------------------------------------------------------

       Atom             a.u.   MegaHertz   Gauss  10(-4) cm-1        Axes

              Baa    -0.3813   -51.168   -18.258   -17.068 -0.4948  0.8329 -0.2480
     1 C(13)  Bbb    -0.3501   -46.975   -16.762   -15.669 -0.2993  0.1045  0.9484
              Bcc     0.7314    98.143    35.020    32.737  0.8158  0.5435  0.1976
 
              Baa    -0.0543    -7.281    -2.598    -2.429 -0.3033  0.0851  0.9491
     2 C(13)  Bbb    -0.0086    -1.152    -0.411    -0.384  0.9500 -0.0506  0.3082
              Bcc     0.0628     8.433     3.009     2.813  0.0743  0.9951 -0.0654
 
              Baa    -0.0067    -0.893    -0.319    -0.298  0.2469  0.9354 -0.2530
     3 C(13)  Bbb    -0.0022    -0.298    -0.106    -0.099  0.6415  0.0380  0.7662
              Bcc     0.0089     1.191     0.425     0.397  0.7263 -0.3515 -0.5907
 
              Baa    -0.0060    -3.184    -1.136    -1.062 -0.1675  0.8396 -0.5167
     4 H(1)   Bbb    -0.0026    -1.388    -0.495    -0.463  0.8347  0.3997  0.3788
              Bcc     0.0086     4.572     1.631     1.525 -0.5246  0.3678  0.7678
 
              Baa    -0.0034    -1.817    -0.648    -0.606  0.1338 -0.5615  0.8166
     5 H(1)   Bbb    -0.0025    -1.342    -0.479    -0.448  0.6367  0.6801  0.3633
              Bcc     0.0059     3.159     1.127     1.054  0.7594 -0.4714 -0.4485
 
              Baa    -0.0042    -2.239    -0.799    -0.747  0.0441  0.9988  0.0218
     6 H(1)   Bbb    -0.0039    -2.094    -0.747    -0.698  0.6426 -0.0451  0.7648
              Bcc     0.0081     4.333     1.546     1.445  0.7649 -0.0197 -0.6439
 
              Baa    -0.2269    16.416     5.858     5.476 -0.3744  0.9090 -0.1831
     7 O(17)  Bbb    -0.1614    11.679     4.167     3.896 -0.2855  0.0749  0.9555
              Bcc     0.3883   -28.096   -10.025    -9.372  0.8822  0.4099  0.2315
 
              Baa    -0.8008    57.943    20.676    19.328 -0.4080  0.2235  0.8852
     8 O(17)  Bbb    -0.7928    57.370    20.471    19.137 -0.4688  0.7807 -0.4131
              Bcc     1.5936  -115.313   -41.147   -38.464  0.7834  0.5835  0.2138
 
              Baa    -0.1234   -65.835   -23.492   -21.960  0.0759 -0.5240  0.8483
     9 H(1)   Bbb    -0.1208   -64.445   -22.995   -21.496 -0.4628  0.7351  0.4954
              Bcc     0.2442   130.280    46.487    43.457  0.8832  0.4302  0.1868
 
              Baa    -0.0071    -3.771    -1.346    -1.258 -0.2621  0.0905  0.9608
    10 H(1)   Bbb    -0.0027    -1.421    -0.507    -0.474  0.8465 -0.4566  0.2739
              Bcc     0.0097     5.192     1.852     1.732  0.4635  0.8851  0.0430
 
              Baa    -0.0104    -5.527    -1.972    -1.843 -0.2084  0.1429  0.9675
    11 H(1)   Bbb    -0.0064    -3.419    -1.220    -1.140  0.8814  0.4563  0.1225
              Bcc     0.0168     8.945     3.192     2.984 -0.4240  0.8783 -0.2211
 
              Baa    -0.0331    -4.448    -1.587    -1.484  0.3571  0.9338 -0.0240
    12 C(13)  Bbb    -0.0327    -4.382    -1.564    -1.462 -0.2850  0.1333  0.9492
              Bcc     0.0658     8.830     3.151     2.945  0.8895 -0.3321  0.3137
 
              Baa    -0.0098    -5.249    -1.873    -1.751 -0.1461 -0.4426  0.8847
    13 H(1)   Bbb    -0.0065    -3.492    -1.246    -1.165  0.6721  0.6118  0.4171
              Bcc     0.0164     8.740     3.119     2.915  0.7259 -0.6556 -0.2081
 
              Baa    -0.0090    -4.825    -1.722    -1.609 -0.2966  0.0911  0.9506
    14 H(1)   Bbb    -0.0005    -0.267    -0.095    -0.089 -0.0814  0.9894 -0.1202
              Bcc     0.0095     5.092     1.817     1.698  0.9515  0.1130  0.2861
 
              Baa    -0.0098    -5.245    -1.872    -1.750 -0.3373  0.6012  0.7245
    15 H(1)   Bbb    -0.0064    -3.438    -1.227    -1.147  0.8272  0.5566 -0.0767
              Bcc     0.0163     8.683     3.098     2.896  0.4493 -0.5734  0.6850
 

 ---------------------------------------------------------------------------------

 Calling FoFJK, ICntrl=  10100127 FMM=F ISym2X=0 I1Cent= 0 IOpClX= 1 NMat=1 NMatS=1 NMatT=0.
 -------------------------------------------------------------------
 Center     Atomic                   Forces (Hartrees/Bohr)
 Number     Number              X              Y              Z
 -------------------------------------------------------------------
      1        6          -0.000002040    0.000005334   -0.000000322
      2        6           0.000003109   -0.000001048   -0.000001081
      3        6           0.000001467   -0.000000280   -0.000001373
      4        1          -0.000001805   -0.000001183    0.000000160
      5        1          -0.000000246    0.000000373    0.000000094
      6        1          -0.000000457   -0.000000056   -0.000000615
      7        8           0.000007032   -0.000022891    0.000003679
      8        8          -0.000008837    0.000026611   -0.000004155
      9        1          -0.000000600   -0.000006296    0.000003567
     10        1           0.000001176   -0.000000307   -0.000000473
     11        1           0.000001771    0.000000213   -0.000000419
     12        6           0.000000209   -0.000001170    0.000001004
     13        1           0.000000011    0.000000301   -0.000000011
     14        1          -0.000000618    0.000000544    0.000000112
     15        1          -0.000000172   -0.000000146   -0.000000166
 -------------------------------------------------------------------
 Cartesian Forces:  Max     0.000026611 RMS     0.000005785
 FormGI is forming the generalized inverse of G from B-inverse, IUseBI=4.

 GradGradGradGradGradGradGradGradGradGradGradGradGradGradGradGradGradGrad
 Berny optimization.
 Internal  Forces:  Max     0.000023517 RMS     0.000006041
 Search for a saddle point.
 Step number   1 out of a maximum of  100 on scan point     1 out of    37
 All quantities printed in internal units (Hartrees-Bohrs-Radians)
 Swapping is turned off.
 Second derivative matrix not updated -- analytic derivatives used.
 ITU=  0
     Eigenvalues ---   -0.06034   0.00166   0.00689   0.01019   0.01504
     Eigenvalues ---    0.01949   0.03566   0.03878   0.04669   0.05477
     Eigenvalues ---    0.05614   0.05981   0.08482   0.08564   0.09090
     Eigenvalues ---    0.09988   0.11436   0.12212   0.13142   0.14591
     Eigenvalues ---    0.15367   0.16588   0.18259   0.18479   0.20385
     Eigenvalues ---    0.26877   0.31918   0.32159   0.33262   0.33595
     Eigenvalues ---    0.33790   0.34434   0.34505   0.35094   0.35583
     Eigenvalues ---    0.35898   0.40646   0.651261000.000001000.00000
     Eigenvalues --- 1000.000001000.000001000.000001000.000001000.00000
     Eigenvalues --- 1000.000001000.000001000.000001000.000001000.00000
     Eigenvalues --- 1000.00000
 Eigenvectors required to have negative eigenvalues:
                          R2        R11       R10       A2        A1
   1                    0.76676  -0.58450   0.14534   0.14524  -0.09068
                          A14       D15       A3        A21       A13
   1                   -0.07121  -0.05569  -0.05457   0.04108  -0.03578
 RFO step:  Lambda0=1.018350612D-10 Lambda=-1.60340324D-08.
 Linear search not attempted -- option 19 set.
 Iteration  1 RMS(Cart)=  0.00044697 RMS(Int)=  0.00000004
 Iteration  2 RMS(Cart)=  0.00000008 RMS(Int)=  0.00000000
 Iteration  1 RMS(Cart)=  0.00000000 RMS(Int)=  0.00000000
 Variable       Old X    -DE/DX   Delta X   Delta X   Delta X     New X
                                 (Linear)    (Quad)   (Total)
    R1        2.48062  -0.00000   0.00000  -0.00000  -0.00000   2.48061
    R2        2.65815   0.00000   0.00000   0.00004   0.00004   2.65819
    R3        2.79306   0.00000   0.00000   0.00000   0.00000   2.79307
    R4        2.05506   0.00000   0.00000   0.00000   0.00000   2.05506
    R5        2.04533  -0.00000   0.00000  -0.00000  -0.00000   2.04533
    R6        2.06151  -0.00000   0.00000  -0.00000  -0.00000   2.06151
    R7        2.05646   0.00000   0.00000  -0.00000  -0.00000   2.05646
    R8        2.05712  -0.00000   0.00000   0.00000   0.00000   2.05713
    R9        2.68493  -0.00000   0.00000  -0.00001  -0.00001   2.68492
   R10        2.67173  -0.00002   0.00000  -0.00009  -0.00009   2.67164
   R11        2.12264   0.00000   0.00000  -0.00004  -0.00004   2.12260
   R12        2.05916  -0.00000   0.00000   0.00000   0.00000   2.05916
   R13        2.06607  -0.00000   0.00000  -0.00000  -0.00000   2.06607
   R14        2.05913  -0.00000   0.00000  -0.00000  -0.00000   2.05913
    A1        1.93247   0.00001   0.00000   0.00012   0.00012   1.93259
    A2        2.36067  -0.00000   0.00000  -0.00002  -0.00002   2.36065
    A3        1.99004  -0.00001   0.00000  -0.00010  -0.00010   1.98994
    A4        2.11522  -0.00000   0.00000  -0.00002  -0.00002   2.11521
    A5        2.11692   0.00000   0.00000   0.00002   0.00002   2.11694
    A6        2.05101   0.00000   0.00000  -0.00001  -0.00001   2.05100
    A7        1.91978  -0.00000   0.00000  -0.00000  -0.00000   1.91978
    A8        1.92083  -0.00000   0.00000  -0.00001  -0.00001   1.92082
    A9        1.93237   0.00000   0.00000   0.00001   0.00001   1.93238
   A10        1.92376  -0.00000   0.00000  -0.00000  -0.00000   1.92376
   A11        1.83585   0.00000   0.00000   0.00001   0.00001   1.83586
   A12        1.92977  -0.00000   0.00000  -0.00000  -0.00000   1.92977
   A13        1.87567   0.00000   0.00000   0.00002   0.00002   1.87569
   A14        1.80288   0.00002   0.00000   0.00009   0.00009   1.80297
   A15        1.93785  -0.00000   0.00000  -0.00002  -0.00002   1.93784
   A16        1.92343  -0.00000   0.00000  -0.00001  -0.00001   1.92342
   A17        1.93926   0.00000   0.00000   0.00001   0.00001   1.93927
   A18        1.89173   0.00000   0.00000   0.00000   0.00000   1.89173
   A19        1.87703   0.00000   0.00000   0.00000   0.00000   1.87703
   A20        1.89292   0.00000   0.00000   0.00000   0.00000   1.89292
   A21        3.05764   0.00002   0.00000   0.00039   0.00039   3.05803
   A22        3.07973   0.00000   0.00000  -0.00007  -0.00007   3.07966
    D1        3.14053   0.00000   0.00000   0.00012   0.00012   3.14065
    D2       -0.00961   0.00000   0.00000   0.00012   0.00012  -0.00949
    D3        0.00175  -0.00000   0.00000  -0.00015  -0.00015   0.00160
    D4        3.13480  -0.00000   0.00000  -0.00015  -0.00015   3.13465
    D5        2.86070  -0.00001   0.00000   0.00000   0.00000   2.86070
    D6       -2.08612   0.00000   0.00000   0.00021   0.00021  -2.08591
    D7        0.01014   0.00000   0.00000   0.00020   0.00020   0.01034
    D8        2.10881   0.00000   0.00000   0.00021   0.00021   2.10902
    D9        1.05835  -0.00000   0.00000  -0.00007  -0.00007   1.05829
   D10       -3.12857  -0.00000   0.00000  -0.00008  -0.00008  -3.12864
   D11       -1.02990  -0.00000   0.00000  -0.00007  -0.00007  -1.02996
   D12        1.13579  -0.00000   0.00000  -0.00012  -0.00012   1.13567
   D13       -3.07426  -0.00000   0.00000  -0.00012  -0.00012  -3.07437
   D14       -0.99775  -0.00000   0.00000  -0.00012  -0.00012  -0.99786
   D15       -1.60585  -0.00001   0.00000   0.00004   0.00004  -1.60582
         Item               Value     Threshold  Converged?
 Maximum Force            0.000024     0.000450     YES
 RMS     Force            0.000006     0.000300     YES
 Maximum Displacement     0.001240     0.001800     YES
 RMS     Displacement     0.000447     0.001200     YES
 Predicted change in Energy=-7.966099D-09
 Optimization completed.
    -- Stationary point found.
                           ----------------------------
                           !   Optimized Parameters   !
                           ! (Angstroms and Degrees)  !
 --------------------------                            --------------------------
 ! Name  Definition              Value          Derivative Info.                !
 --------------------------------------------------------------------------------
 ! R1    R(1,2)                  1.3127         -DE/DX =    0.0                 !
 ! R2    R(1,9)                  1.4066         -DE/DX =    0.0                 !
 ! R3    R(1,12)                 1.478          -DE/DX =    0.0                 !
 ! R4    R(2,10)                 1.0875         -DE/DX =    0.0                 !
 ! R5    R(2,11)                 1.0823         -DE/DX =    0.0                 !
 ! R6    R(3,4)                  1.0909         -DE/DX =    0.0                 !
 ! R7    R(3,5)                  1.0882         -DE/DX =    0.0                 !
 ! R8    R(3,6)                  1.0886         -DE/DX =    0.0                 !
 ! R9    R(3,7)                  1.4208         -DE/DX =    0.0                 !
 ! R10   R(7,8)                  1.4138         -DE/DX =    0.0                 !
 ! R11   R(8,9)                  1.1233         -DE/DX =    0.0                 !
 ! R12   R(12,13)                1.0897         -DE/DX =    0.0                 !
 ! R13   R(12,14)                1.0933         -DE/DX =    0.0                 !
 ! R14   R(12,15)                1.0896         -DE/DX =    0.0                 !
 ! A1    A(2,1,9)              110.7222         -DE/DX =    0.0                 !
 ! A2    A(2,1,12)             135.2565         -DE/DX =    0.0                 !
 ! A3    A(9,1,12)             114.0211         -DE/DX =    0.0                 !
 ! A4    A(1,2,10)             121.1934         -DE/DX =    0.0                 !
 ! A5    A(1,2,11)             121.2907         -DE/DX =    0.0                 !
 ! A6    A(10,2,11)            117.5142         -DE/DX =    0.0                 !
 ! A7    A(4,3,5)              109.9955         -DE/DX =    0.0                 !
 ! A8    A(4,3,6)              110.0555         -DE/DX =    0.0                 !
 ! A9    A(4,3,7)              110.7169         -DE/DX =    0.0                 !
 ! A10   A(5,3,6)              110.2234         -DE/DX =    0.0                 !
 ! A11   A(5,3,7)              105.1867         -DE/DX =    0.0                 !
 ! A12   A(6,3,7)              110.5675         -DE/DX =    0.0                 !
 ! A13   A(3,7,8)              107.4682         -DE/DX =    0.0                 !
 ! A14   A(7,8,9)              103.2974         -DE/DX =    0.0                 !
 ! A15   A(1,12,13)            111.0307         -DE/DX =    0.0                 !
 ! A16   A(1,12,14)            110.2045         -DE/DX =    0.0                 !
 ! A17   A(1,12,15)            111.1113         -DE/DX =    0.0                 !
 ! A18   A(13,12,14)           108.3881         -DE/DX =    0.0                 !
 ! A19   A(13,12,15)           107.546          -DE/DX =    0.0                 !
 ! A20   A(14,12,15)           108.4562         -DE/DX =    0.0                 !
 ! A21   L(1,9,8,4,-1)         175.1899         -DE/DX =    0.0                 !
 ! A22   L(1,9,8,4,-2)         176.4557         -DE/DX =    0.0                 !
 ! D1    D(9,1,2,10)           179.939          -DE/DX =    0.0                 !
 ! D2    D(9,1,2,11)            -0.5508         -DE/DX =    0.0                 !
 ! D3    D(12,1,2,10)            0.1003         -DE/DX =    0.0                 !
 ! D4    D(12,1,2,11)          179.6105         -DE/DX =    0.0                 !
 ! D5    D(12,1,8,7)           163.906          -DE/DX =    0.0                 !
 ! D6    D(2,1,12,13)         -119.526          -DE/DX =    0.0                 !
 ! D7    D(2,1,12,14)            0.5811         -DE/DX =    0.0                 !
 ! D8    D(2,1,12,15)          120.8261         -DE/DX =    0.0                 !
 ! D9    D(9,1,12,13)           60.6392         -DE/DX =    0.0                 !
 ! D10   D(9,1,12,14)         -179.2537         -DE/DX =    0.0                 !
 ! D11   D(9,1,12,15)          -59.0087         -DE/DX =    0.0                 !
 ! D12   D(4,3,7,8)             65.0762         -DE/DX =    0.0                 !
 ! D13   D(5,3,7,8)           -176.1419         -DE/DX =    0.0                 !
 ! D14   D(6,3,7,8)            -57.1668         -DE/DX =    0.0                 !
 ! D15   D(3,7,8,9)            -92.0087         -DE/DX =    0.0                 !
 --------------------------------------------------------------------------------
 Iteration  1 RMS(Cart)=  0.12348680 RMS(Int)=  0.00410426
 Iteration  2 RMS(Cart)=  0.00735464 RMS(Int)=  0.00001122
 Iteration  3 RMS(Cart)=  0.00003444 RMS(Int)=  0.00000000
 Iteration  4 RMS(Cart)=  0.00000000 RMS(Int)=  0.00000000
 Iteration  1 RMS(Cart)=  0.00000000 RMS(Int)=  0.00000000
 GradGradGradGradGradGradGradGradGradGradGradGradGradGradGradGradGradGrad

                          Input orientation:                          
 ---------------------------------------------------------------------
 Center     Atomic      Atomic             Coordinates (Angstroms)
 Number     Number       Type             X           Y           Z
 ---------------------------------------------------------------------
      1          6           0        1.351032    0.117436   -0.021247
      2          6           0        1.122404    1.403653   -0.149752
      3          6           0       -2.229107    0.257899    0.723563
      4          1           0       -1.441359    0.596375    1.398071
      5          1           0       -2.954059    1.054567    0.568614
      6          1           0       -2.719727   -0.622619    1.134656
      7          8           0       -1.701333   -0.021032   -0.565748
      8          8           0       -0.815542   -1.115022   -0.434168
      9          1           0        0.178858   -0.622834   -0.259323
     10          1           0        1.914284    2.134067   -0.001225
     11          1           0        0.141542    1.776543   -0.414940
     12          6           0        2.528860   -0.711389    0.310923
     13          1           0        2.769430   -1.393469   -0.504092
     14          1           0        3.398347   -0.074941    0.496046
     15          1           0        2.346628   -1.313766    1.200453
 ---------------------------------------------------------------------
                    Distance matrix (angstroms):
                    1          2          3          4          5
     1  C    0.000000
     2  C    1.312683   0.000000
     3  C    3.659490   3.648021   0.000000
     4  H    3.168801   3.101667   1.090905   0.000000
     5  H    4.445218   4.153969   1.088230   1.784993   0.000000
     6  H    4.295913   4.529619   1.088585   1.785933   1.785572
     7  O    3.103641   3.190027   1.420800   2.074937   2.003250
     8  O    2.526559   3.190650   2.285481   2.584111   3.207171
     9  H    1.406653   2.238064   2.745916   2.618880   3.648879
    10  H    2.093909   1.087492   4.605759   3.947514   5.019043
    11  H    2.090573   1.082342   3.036848   2.680556   3.327367
    12  C    1.478028   2.581422   4.873196   4.319118   5.766056
    13  H    2.127868   3.265293   5.405509   5.030750   6.316795
    14  H    2.120401   2.789841   5.641878   4.968609   6.452451
    15  H    2.128873   3.272024   4.861575   4.246945   5.839992
                    6          7          8          9         10
     6  H    0.000000
     7  O    2.071329   0.000000
     8  O    2.515867   1.413773   0.000000
     9  H    3.216360   1.997794   1.123232   0.000000
    10  H    5.510317   4.246860   4.265673   3.267846   0.000000
    11  H    4.042782   2.578800   3.045904   2.404708   1.855154
    12  C    5.313575   4.374892   3.450087   2.419821   2.927757
    13  H    5.780186   4.677083   3.596449   2.713827   3.664377
    14  H    6.175646   5.209324   4.438911   3.351997   2.707294
    15  H    5.113704   4.601806   3.565221   2.703250   3.676751
                   11         12         13         14         15
    11  H    0.000000
    12  C    3.523631   0.000000
    13  H    4.118582   1.089658   0.000000
    14  H    3.855473   1.093319   1.770403   0.000000
    15  H    4.125762   1.089646   1.758006   1.771155   0.000000
 Symmetry turned off by external request.
 Stoichiometry    C4H9O2(2)
 Framework group  C1[X(C4H9O2)]
 Deg. of freedom    39
 Full point group                 C1      NOp   1
 Rotational constants (GHZ):           5.9020706           1.6933861           1.4784423
 Standard basis: CC-pVTZ (5D, 7F)
   306 basis functions,   465 primitive gaussians,   345 cartesian basis functions
    25 alpha electrons       24 beta electrons
       nuclear repulsion energy       235.6087956606 Hartrees.
 NAtoms=   15 NActive=   15 NUniq=   15 SFac= 1.00D+00 NAtFMM=   60 NAOKFM=F Big=F
 Integral buffers will be    131072 words long.
 Raffenetti 2 integral format.
 Two-electron integral symmetry is turned off.
 Nuclear repulsion after empirical dispersion term =      235.6015533802 Hartrees.
 One-electron integrals computed using PRISM.
 NBasis=   306 RedAO= T EigKep=  4.19D-04  NBF=   306
 NBsUse=   306 1.00D-06 EigRej= -1.00D+00 NBFU=   306
 Initial guess from the checkpoint file:  "/localscratch/350155/Gau-89001.chk"
 B after Tr=     0.005325   -0.044309    0.030847
         Rot=    0.999963    0.008099    0.001299   -0.002475 Ang=   0.98 deg.
 Initial guess <Sx>= 0.0000 <Sy>= 0.0000 <Sz>= 0.5000 <S**2>= 0.7778 S= 0.5138
 ExpMin= 1.03D-01 ExpMax= 1.53D+04 ExpMxC= 5.22D+02 IAcc=3 IRadAn=         5 AccDes= 0.00D+00
 Harris functional with IExCor=  419 and IRadAn=       5 diagonalized for initial guess.
 HarFok:  IExCor=  419 AccDes= 0.00D+00 IRadAn=         5 IDoV= 1 UseB2=F ITyADJ=14
 ICtDFT=  3500011 ScaDFX=  1.000000  1.000000  1.000000  1.000000
 FoFCou: FMM=F IPFlag=           0 FMFlag=      100000 FMFlg1=           0
         NFxFlg=           0 DoJE=T BraDBF=F KetDBF=T FulRan=T
         wScrn=  0.000000 ICntrl=       500 IOpCl=  0 I1Cent=   200000004 NGrid=           0
         NMat0=    1 NMatS0=      1 NMatT0=    0 NMatD0=    1 NMtDS0=    0 NMtDT0=    0
 Symmetry not used in FoFCou.
 Requested convergence on RMS density matrix=1.00D-08 within 500 cycles.
 Requested convergence on MAX density matrix=1.00D-06.
 Requested convergence on             energy=1.00D-06.
 No special actions if energy rises.
 Integral accuracy reduced to 1.0D-05 until final iterations.
 Initial convergence to 1.0D-05 achieved.  Increase integral accuracy.
 SCF Done:  E(UB2PLYPD3) =  -307.568905123     A.U. after   16 cycles
            NFock= 16  Conv=0.88D-08     -V/T= 2.0043
 <Sx>= 0.0000 <Sy>= 0.0000 <Sz>= 0.5000 <S**2>= 0.7777 S= 0.5138
 <L.S>=  0.00000000000    
 Annihilation of the first spin contaminant:
 S**2 before annihilation     0.7777,   after     0.7505
 DoSCS=T DFT=T ScalE2(SS,OS)=  0.270000  0.270000
 ExpMin= 1.03D-01 ExpMax= 1.53D+04 ExpMxC= 5.22D+02 IAcc=3 IRadAn=         5 AccDes= 0.00D+00
 HarFok:  IExCor=  205 AccDes= 0.00D+00 IRadAn=         5 IDoV=-2 UseB2=F ITyADJ=14
 ICtDFT= 12500011 ScaDFX=  1.000000  1.000000  1.000000  1.000000
 Range of M.O.s used for correlation:     7   306
 NBasis=   306 NAE=    25 NBE=    24 NFC=     6 NFV=     0
 NROrb=    300 NOA=    19 NOB=    18 NVA=   281 NVB=   282

 **** Warning!!: The largest alpha MO coefficient is  0.12025458D+02


 **** Warning!!: The largest beta MO coefficient is  0.12025435D+02

 DoSCS=T DFT=T ScalE2(SS,OS)=  0.270000  0.270000
 Disk-based method using ON**2 memory for 19 occupieds at a time.
 Estimated scratch disk usage=  1366615820 words.
 Actual    scratch disk usage=  1252457740 words.
 JobTyp=2 Pass  1:  I=   7 to  25 NPSUse= 40 ParTrn=T ParDer=T DoDerP=T.
 (rs|ai) integrals will be sorted in core.
 Actual    scratch disk usage=  1252457740 words.
 JobTyp=3 Pass  1:  I=   7 to  24 NPSUse= 40 ParTrn=T ParDer=T DoDerP=T.
 (rs|ai) integrals will be sorted in core.
 Spin components of T(2) and E(2):
     alpha-alpha T2 =       0.6504386935D-01 E2=     -0.4679554675D-01
     alpha-beta  T2 =       0.4014196675D+00 E2=     -0.2905878819D+00
     beta-beta   T2 =       0.7070169916D-01 E2=     -0.4583273220D-01
 (S**2,0)=  0.77774D+00           (S**2,1)=  0.74909D+00
 Scaling Projection term by:   0.270000
 E(PUHF)=      -0.30757528493D+03        E(PMP2)=      -0.30795296466D+03
 E2(B2PLYPD3) =    -0.3832161609D+00 E(B2PLYPD3) =    -0.30795212128405D+03
          IDoAtm=111111111111111
          Differentiating once with respect to electric field.
                with respect to dipole field.
          Differentiating once with respect to nuclear coordinates.
 Keep R1 and R2 ints in memory in canonical form, NReq=2252583484.
          There are     1 degrees of freedom in the 1st order CPHF.  IDoFFX=0 NUNeed=     1.
 LinEq1:  Iter=  0 NonCon=     1 RMS=9.85D-04 Max=6.75D-02 NDo=     1
 AX will form     1 AO Fock derivatives at one time.
 LinEq1:  Iter=  1 NonCon=     1 RMS=3.51D-04 Max=1.57D-02 NDo=     1
 LinEq1:  Iter=  2 NonCon=     1 RMS=2.26D-04 Max=1.33D-02 NDo=     1
 LinEq1:  Iter=  3 NonCon=     1 RMS=1.29D-04 Max=8.83D-03 NDo=     1
 LinEq1:  Iter=  4 NonCon=     1 RMS=8.15D-05 Max=4.76D-03 NDo=     1
 LinEq1:  Iter=  5 NonCon=     1 RMS=3.36D-05 Max=9.14D-04 NDo=     1
 LinEq1:  Iter=  6 NonCon=     1 RMS=2.49D-05 Max=9.13D-04 NDo=     1
 LinEq1:  Iter=  7 NonCon=     1 RMS=1.03D-05 Max=3.22D-04 NDo=     1
 LinEq1:  Iter=  8 NonCon=     1 RMS=6.77D-06 Max=1.77D-04 NDo=     1
 LinEq1:  Iter=  9 NonCon=     1 RMS=2.76D-06 Max=7.69D-05 NDo=     1
 LinEq1:  Iter= 10 NonCon=     1 RMS=1.06D-06 Max=2.17D-05 NDo=     1
 LinEq1:  Iter= 11 NonCon=     1 RMS=4.35D-07 Max=6.05D-06 NDo=     1
 LinEq1:  Iter= 12 NonCon=     1 RMS=1.82D-07 Max=3.47D-06 NDo=     1
 LinEq1:  Iter= 13 NonCon=     1 RMS=8.89D-08 Max=1.69D-06 NDo=     1
 LinEq1:  Iter= 14 NonCon=     1 RMS=2.64D-08 Max=6.62D-07 NDo=     1
 LinEq1:  Iter= 15 NonCon=     1 RMS=7.23D-09 Max=1.86D-07 NDo=     1
 LinEq1:  Iter= 16 NonCon=     1 RMS=2.27D-09 Max=6.01D-08 NDo=     1
 LinEq1:  Iter= 17 NonCon=     1 RMS=8.64D-10 Max=2.19D-08 NDo=     1
 LinEq1:  Iter= 18 NonCon=     1 RMS=3.82D-10 Max=1.30D-08 NDo=     1
 LinEq1:  Iter= 19 NonCon=     1 RMS=1.26D-10 Max=4.63D-09 NDo=     1
 LinEq1:  Iter= 20 NonCon=     1 RMS=4.76D-11 Max=2.03D-09 NDo=     1
 LinEq1:  Iter= 21 NonCon=     0 RMS=1.55D-11 Max=4.98D-10 NDo=     1
 Linear equations converged to 1.000D-10 1.000D-09 after    21 iterations.
 End of Minotr F.D. properties file   721 does not exist.
 End of Minotr F.D. properties file   722 does not exist.
 End of Minotr F.D. properties file   788 does not exist.
 Calling FoFJK, ICntrl=  10002127 FMM=F ISym2X=0 I1Cent= 0 IOpClX= 1 NMat=1 NMatS=1 NMatT=0.
 -------------------------------------------------------------------
 Center     Atomic                   Forces (Hartrees/Bohr)
 Number     Number              X              Y              Z
 -------------------------------------------------------------------
      1        6          -0.000201305    0.000045427    0.000327443
      2        6           0.000195191    0.000030170    0.000184057
      3        6          -0.000267722   -0.000223843    0.000407207
      4        1          -0.000184300   -0.000178653    0.000106573
      5        1          -0.000060382   -0.000007771   -0.000040391
      6        1          -0.000016207    0.000051346    0.000012207
      7        8           0.000211193    0.000178970    0.000106316
      8        8          -0.000062604   -0.000012368   -0.000089614
      9        1           0.000184706    0.000009967   -0.000459125
     10        1          -0.000003366    0.000009984   -0.000210473
     11        1           0.000294530    0.000056706   -0.000426244
     12        6          -0.000018603   -0.000012049    0.000022841
     13        1          -0.000069409    0.000020581   -0.000008902
     14        1          -0.000019327    0.000006125    0.000032464
     15        1           0.000017606    0.000025406    0.000035640
 -------------------------------------------------------------------
 Cartesian Forces:  Max     0.000459125 RMS     0.000167799

 GradGradGradGradGradGradGradGradGradGradGradGradGradGradGradGradGradGrad
 Berny optimization.
 FormGI is forming the generalized inverse of G from B-inverse, IUseBI=4.
 Internal  Forces:  Max     0.002299864 RMS     0.000539221
 Search for a saddle point.
 Step number   1 out of a maximum of  100 on scan point     2 out of    37
 All quantities printed in internal units (Hartrees-Bohrs-Radians)
 Swapping is turned off.
 Second derivative matrix not updated -- first step.
 ITU=  0
     Eigenvalues ---   -0.06034   0.00166   0.00689   0.01019   0.01504
     Eigenvalues ---    0.01949   0.03566   0.03878   0.04669   0.05477
     Eigenvalues ---    0.05614   0.05981   0.08482   0.08564   0.09090
     Eigenvalues ---    0.09988   0.11436   0.12212   0.13142   0.14591
     Eigenvalues ---    0.15367   0.16588   0.18259   0.18479   0.20385
     Eigenvalues ---    0.26877   0.31918   0.32159   0.33262   0.33595
     Eigenvalues ---    0.33790   0.34434   0.34505   0.35094   0.35583
     Eigenvalues ---    0.35898   0.40646   0.651261000.000001000.00000
     Eigenvalues --- 1000.000001000.000001000.000001000.000001000.00000
     Eigenvalues --- 1000.000001000.000001000.000001000.000001000.00000
     Eigenvalues --- 1000.00000
 Eigenvectors required to have negative eigenvalues:
                          R2        R11       R10       A2        A1
   1                    0.76676  -0.58450   0.14534   0.14524  -0.09068
                          A14       D15       A3        A21       A13
   1                   -0.07121  -0.05569  -0.05457   0.04108  -0.03578
 RFO step:  Lambda0=7.678112313D-11 Lambda=-1.90102853D-04.
 Linear search not attempted -- option 19 set.
 Iteration  1 RMS(Cart)=  0.05829631 RMS(Int)=  0.00090421
 Iteration  2 RMS(Cart)=  0.00121580 RMS(Int)=  0.00004545
 Iteration  3 RMS(Cart)=  0.00000068 RMS(Int)=  0.00004544
 Iteration  1 RMS(Cart)=  0.00000000 RMS(Int)=  0.00000000
 Variable       Old X    -DE/DX   Delta X   Delta X   Delta X     New X
                                 (Linear)    (Quad)   (Total)
    R1        2.48061   0.00005   0.00000  -0.00008  -0.00008   2.48053
    R2        2.65819   0.00025   0.00000  -0.00348  -0.00348   2.65471
    R3        2.79307  -0.00008   0.00000   0.00014   0.00014   2.79321
    R4        2.05506  -0.00002   0.00000  -0.00006  -0.00006   2.05500
    R5        2.04533  -0.00014   0.00000  -0.00049  -0.00049   2.04484
    R6        2.06151  -0.00013   0.00000  -0.00034  -0.00034   2.06117
    R7        2.05646   0.00004   0.00000   0.00007   0.00007   2.05653
    R8        2.05713  -0.00003   0.00000   0.00001   0.00001   2.05713
    R9        2.68492   0.00056   0.00000   0.00091   0.00091   2.68583
   R10        2.67164   0.00002   0.00000   0.00054   0.00054   2.67219
   R11        2.12260   0.00034   0.00000   0.00093   0.00093   2.12353
   R12        2.05916  -0.00002   0.00000  -0.00002  -0.00002   2.05914
   R13        2.06607  -0.00001   0.00000  -0.00004  -0.00004   2.06603
   R14        2.05913   0.00001   0.00000  -0.00002  -0.00002   2.05911
    A1        1.93259   0.00079   0.00000   0.00754   0.00738   1.93996
    A2        2.36065  -0.00035   0.00000  -0.00130  -0.00146   2.35919
    A3        1.98994  -0.00045   0.00000  -0.00617  -0.00633   1.98361
    A4        2.11521  -0.00003   0.00000  -0.00062  -0.00063   2.11458
    A5        2.11694   0.00016   0.00000   0.00168   0.00167   2.11861
    A6        2.05100  -0.00013   0.00000  -0.00111  -0.00112   2.04989
    A7        1.91978   0.00004   0.00000   0.00094   0.00093   1.92072
    A8        1.92082  -0.00016   0.00000  -0.00119  -0.00119   1.91963
    A9        1.93238   0.00030   0.00000   0.00135   0.00135   1.93373
[...]
     1  C    0.000335  -0.077683   0.190200  -0.050046  -0.053214   0.328145
     2  C   -0.000366   0.000164  -0.012123   0.391328   0.410908  -0.043251
     3  C    0.298796  -0.041844   0.004395  -0.000046  -0.001958   0.000113
     4  H   -0.050104  -0.003689   0.004579  -0.000110  -0.002346  -0.000044
     5  H   -0.026960   0.006969  -0.000940  -0.000003  -0.000247  -0.000020
     6  H   -0.036622   0.004268   0.000267   0.000009   0.000591  -0.000016
     7  O    7.952242   0.071532  -0.031869   0.000273   0.014385  -0.000005
     8  O    0.071532   8.032373   0.234147  -0.000366  -0.000785   0.002576
     9  H   -0.031869   0.234147   0.398306   0.002203  -0.003109  -0.010394
    10  H    0.000273  -0.000366   0.002203   0.560739  -0.033148  -0.006156
    11  H    0.014385  -0.000785  -0.003109  -0.033148   0.505246   0.004921
    12  C   -0.000005   0.002576  -0.010394  -0.006156   0.004921   4.769746
    13  H   -0.000004   0.000349  -0.000945  -0.000071  -0.000275   0.412984
    14  H   -0.000019  -0.000217   0.001778   0.004941  -0.000356   0.395758
    15  H   -0.000019   0.001080  -0.000399  -0.000131  -0.000089   0.409465
              13         14         15
     1  C   -0.041475  -0.037112  -0.041892
     2  C   -0.001413  -0.002888   0.000141
     3  C   -0.000015  -0.000006   0.000124
     4  H    0.000034   0.000052  -0.000184
     5  H   -0.000002   0.000000   0.000009
     6  H   -0.000001  -0.000002   0.000003
     7  O   -0.000004  -0.000019  -0.000019
     8  O    0.000349  -0.000217   0.001080
     9  H   -0.000945   0.001778  -0.000399
    10  H   -0.000071   0.004941  -0.000131
    11  H   -0.000275  -0.000356  -0.000089
    12  C    0.412984   0.395758   0.409465
    13  H    0.575490  -0.027061  -0.035427
    14  H   -0.027061   0.588760  -0.027068
    15  H   -0.035427  -0.027068   0.581503
          Atomic-Atomic Spin Densities.
               1          2          3          4          5          6
     1  C    0.813527  -0.012739   0.000560  -0.003931   0.000124   0.001045
     2  C   -0.012739  -0.152075  -0.000138   0.000466  -0.000039  -0.000125
     3  C    0.000560  -0.000138  -0.004419   0.003854   0.000403  -0.002161
     4  H   -0.003931   0.000466   0.003854   0.000700  -0.000723  -0.000771
     5  H    0.000124  -0.000039   0.000403  -0.000723  -0.001455   0.000976
     6  H    0.001045  -0.000125  -0.002161  -0.000771   0.000976   0.002476
     7  O    0.011511  -0.001868   0.000231  -0.000773   0.000159  -0.000321
     8  O   -0.086088   0.005984  -0.001686   0.003280  -0.000196  -0.000414
     9  H    0.058206  -0.002806   0.000624  -0.003049   0.000109   0.001222
    10  H   -0.013249  -0.003669   0.000060  -0.000296   0.000010   0.000019
    11  H   -0.006626   0.012777  -0.000315   0.001102  -0.000088  -0.000156
    12  C   -0.032608   0.006269   0.000008   0.000349  -0.000003  -0.000061
    13  H   -0.004707   0.000345   0.000002   0.000007   0.000000  -0.000001
    14  H   -0.007334  -0.001645   0.000006  -0.000067   0.000000   0.000006
    15  H   -0.005005   0.000284  -0.000005   0.000035  -0.000001  -0.000009
               7          8          9         10         11         12
     1  C    0.011511  -0.086088   0.058206  -0.013249  -0.006626  -0.032608
     2  C   -0.001868   0.005984  -0.002806  -0.003669   0.012777   0.006269
     3  C    0.000231  -0.001686   0.000624   0.000060  -0.000315   0.000008
     4  H   -0.000773   0.003280  -0.003049  -0.000296   0.001102   0.000349
     5  H    0.000159  -0.000196   0.000109   0.000010  -0.000088  -0.000003
     6  H   -0.000321  -0.000414   0.001222   0.000019  -0.000156  -0.000061
     7  O    0.043584  -0.035739   0.009341   0.000378  -0.003561  -0.000445
     8  O   -0.035739   0.508040  -0.042191  -0.000822   0.002647   0.006170
     9  H    0.009341  -0.042191  -0.090631   0.001150  -0.000631  -0.005758
    10  H    0.000378  -0.000822   0.001150   0.088189  -0.009910  -0.004734
    11  H   -0.003561   0.002647  -0.000631  -0.009910   0.025726   0.001251
    12  C   -0.000445   0.006170  -0.005758  -0.004734   0.001251   0.020949
    13  H   -0.000011   0.000274  -0.000336  -0.000183   0.000032   0.005617
    14  H    0.000038  -0.000472   0.000711   0.005732  -0.000432  -0.007009
    15  H   -0.000017   0.000304  -0.000235  -0.000208   0.000040   0.005921
              13         14         15
     1  C   -0.004707  -0.007334  -0.005005
     2  C    0.000345  -0.001645   0.000284
     3  C    0.000002   0.000006  -0.000005
     4  H    0.000007  -0.000067   0.000035
     5  H    0.000000   0.000000  -0.000001
     6  H   -0.000001   0.000006  -0.000009
     7  O   -0.000011   0.000038  -0.000017
     8  O    0.000274  -0.000472   0.000304
     9  H   -0.000336   0.000711  -0.000235
    10  H   -0.000183   0.005732  -0.000208
    11  H    0.000032  -0.000432   0.000040
    12  C    0.005617  -0.007009   0.005921
    13  H    0.005247  -0.001951  -0.000718
    14  H   -0.001951   0.058069  -0.002337
    15  H   -0.000718  -0.002337   0.005528
 Mulliken charges and spin densities:
               1          2
     1  C   -0.039251   0.712686
     2  C   -0.323434  -0.148979
     3  C   -0.066410  -0.002976
     4  H    0.073831   0.000185
     5  H    0.095238  -0.000721
     6  H    0.096196   0.001725
     7  O   -0.191597   0.022506
     8  O   -0.228876   0.359094
     9  H    0.223905  -0.074274
    10  H    0.130586   0.062467
    11  H    0.159475   0.021857
    12  C   -0.263822  -0.004082
    13  H    0.117833   0.003617
    14  H    0.103439   0.043318
    15  H    0.112885   0.003576
 Sum of Mulliken charges =  -0.00000   1.00000
 Mulliken charges and spin densities with hydrogens summed into heavy atoms:
               1          2
     1  C   -0.039251   0.712686
     2  C   -0.033373  -0.064655
     3  C    0.198855  -0.001787
     7  O   -0.191597   0.022506
     8  O   -0.004971   0.284820
    12  C    0.070336   0.046429
 Electronic spatial extent (au):  <R**2>=            879.5245
 Charge=             -0.0000 electrons
 Dipole moment (field-independent basis, Debye):
    X=              1.9686    Y=             -1.9204    Z=             -0.4338  Tot=              2.7841
 Quadrupole moment (field-independent basis, Debye-Ang):
   XX=            -35.0147   YY=            -39.6593   ZZ=            -36.4466
   XY=              4.8521   XZ=             -1.0997   YZ=             -2.4429
 Traceless Quadrupole moment (field-independent basis, Debye-Ang):
   XX=              2.0255   YY=             -2.6191   ZZ=              0.5936
   XY=              4.8521   XZ=             -1.0997   YZ=             -2.4429
 Octapole moment (field-independent basis, Debye-Ang**2):
  XXX=             -2.3328  YYY=            -33.6158  ZZZ=            -33.0516  XYY=             -3.0669
  XXY=            -18.1323  XXZ=            -11.2562  XZZ=              0.1528  YZZ=            -12.7812
  YYZ=            -14.0994  XYZ=              0.9438
 Hexadecapole moment (field-independent basis, Debye-Ang**3):
 XXXX=           -678.0408 YYYY=           -171.0885 ZZZZ=           -259.9783 XXXY=            -49.2823
 XXXZ=             73.6228 YYYX=            -59.4750 YYYZ=             20.1788 ZZZX=             71.7609
 ZZZY=             20.4452 XXYY=           -151.7787 XXZZ=           -157.8453 YYZZ=            -72.7963
 XXYZ=             -2.1978 YYXZ=             17.8093 ZZXY=            -15.6836
 N-N= 2.353860316160D+02 E-N=-1.191019398460D+03  KE= 3.062410514558D+02
                          Isotropic Fermi Contact Couplings
        Atom                 a.u.       MegaHertz       Gauss      10(-4) cm-1
     1  C(13)              0.16101     181.00434      64.58685      60.37655
     2  C(13)              0.01372      15.42065       5.50247       5.14377
     3  C(13)             -0.00307      -3.44571      -1.22952      -1.14937
     4  H(1)               0.00209       9.33886       3.33234       3.11511
     5  H(1)              -0.00006      -0.26588      -0.09487      -0.08869
     6  H(1)               0.00045       2.02068       0.72103       0.67403
     7  O(17)              0.01414      -8.57158      -3.05855      -2.85917
     8  O(17)              0.03435     -20.82061      -7.42931      -6.94501
     9  H(1)              -0.02433    -108.76114     -38.80868     -36.27881
    10  H(1)               0.02493     111.43444      39.76258      37.17053
    11  H(1)               0.01276      57.03738      20.35236      19.02562
    12  C(13)              0.01696      19.06869       6.80418       6.36063
    13  H(1)               0.00149       6.65544       2.37483       2.22002
    14  H(1)               0.01789      79.95820      28.53108      26.67119
    15  H(1)               0.00151       6.76803       2.41500       2.25757
 --------------------------------------------------------
       Center         ----  Spin Dipole Couplings  ----
                      3XX-RR        3YY-RR        3ZZ-RR
 --------------------------------------------------------
     1   Atom        0.653300     -0.302032     -0.351269
     2   Atom        0.001458     -0.045250      0.043793
     3   Atom       -0.000468      0.004963     -0.004495
     4   Atom       -0.001529      0.007072     -0.005543
     5   Atom       -0.000227      0.001649     -0.001423
     6   Atom        0.001387      0.002730     -0.004118
     7   Atom        0.369333     -0.145931     -0.223402
     8   Atom        1.351376     -0.653301     -0.698076
     9   Atom        0.235114     -0.113416     -0.121698
    10   Atom        0.004014     -0.005921      0.001907
    11   Atom       -0.006141     -0.009373      0.015513
    12   Atom        0.021372     -0.032680      0.011308
    13   Atom       -0.002227     -0.000880      0.003108
    14   Atom        0.008290     -0.008253     -0.000037
    15   Atom       -0.004764     -0.006799      0.011562
 --------------------------------------------------------
                        XY            XZ            YZ
 --------------------------------------------------------
     1   Atom       -0.222465      0.173780     -0.032170
     2   Atom       -0.016201      0.023396     -0.026288
     3   Atom        0.004765     -0.003636     -0.002354
     4   Atom        0.003231     -0.000906     -0.002260
     5   Atom        0.003172     -0.002001     -0.003166
     6   Atom        0.006021      0.000039      0.000226
     7   Atom       -0.100506      0.010026      0.012956
     8   Atom       -0.563299      0.450698     -0.118276
     9   Atom       -0.054266      0.016874     -0.003810
    10   Atom       -0.003003      0.005549     -0.002941
    11   Atom        0.000176     -0.002617     -0.004972
    12   Atom        0.000163     -0.049206     -0.000004
    13   Atom        0.005176     -0.007616     -0.010561
    14   Atom       -0.002600     -0.003078     -0.001376
    15   Atom       -0.002305     -0.005507      0.008032
 --------------------------------------------------------


 ---------------------------------------------------------------------------------
              Anisotropic Spin Dipole Couplings in Principal Axis System
 ---------------------------------------------------------------------------------

       Atom             a.u.   MegaHertz   Gauss  10(-4) cm-1        Axes

              Baa    -0.3813   -51.169   -18.258   -17.068 -0.1968 -0.1598  0.9673
     1 C(13)  Bbb    -0.3501   -46.975   -16.762   -15.669  0.1798  0.9640  0.1959
              Bcc     0.7314    98.144    35.020    32.737  0.9638 -0.2125  0.1610
 
              Baa    -0.0543    -7.282    -2.598    -2.429  0.1899  0.9587  0.2117
     2 C(13)  Bbb    -0.0086    -1.153    -0.411    -0.385  0.8946 -0.0800 -0.4397
              Bcc     0.0629     8.435     3.010     2.814  0.4046 -0.2729  0.8728
 
              Baa    -0.0067    -0.893    -0.319    -0.298  0.5328 -0.0473  0.8449
     3 C(13)  Bbb    -0.0022    -0.298    -0.106    -0.099  0.6668 -0.5912 -0.4537
              Bcc     0.0089     1.191     0.425     0.397  0.5210  0.8052 -0.2834
 
              Baa    -0.0060    -3.184    -1.136    -1.062  0.0938  0.1474  0.9846
     4 H(1)   Bbb    -0.0026    -1.388    -0.495    -0.463  0.9448 -0.3252 -0.0413
              Bcc     0.0086     4.572     1.631     1.525  0.3141  0.9341 -0.1698
 
              Baa    -0.0034    -1.817    -0.648    -0.606  0.0102  0.5262  0.8503
     5 H(1)   Bbb    -0.0025    -1.342    -0.479    -0.448  0.8536 -0.4475  0.2667
              Bcc     0.0059     3.159     1.127     1.054  0.5208  0.7231 -0.4537
 
              Baa    -0.0042    -2.239    -0.799    -0.747  0.3838 -0.3614  0.8498
     6 H(1)   Bbb    -0.0039    -2.094    -0.747    -0.698  0.6390 -0.5603 -0.5269
              Bcc     0.0081     4.333     1.546     1.445  0.6666  0.7453  0.0158
 
              Baa    -0.2269    16.420     5.859     5.477 -0.0539 -0.2226  0.9734
     7 O(17)  Bbb    -0.1614    11.680     4.168     3.896  0.1770  0.9573  0.2287
              Bcc     0.3883   -28.100   -10.027    -9.373  0.9827 -0.1846  0.0122
 
              Baa    -0.8008    57.942    20.675    19.327  0.2459  0.9686  0.0362
     8 O(17)  Bbb    -0.7928    57.367    20.470    19.136 -0.2020  0.0147  0.9793
              Bcc     1.5936  -115.309   -41.145   -38.463  0.9480 -0.2482  0.1993
 
              Baa    -0.1234   -65.834   -23.491   -21.960  0.0496  0.5805  0.8128
     9 H(1)   Bbb    -0.1208   -64.449   -22.997   -21.498  0.1496  0.8003 -0.5807
              Bcc     0.2442   130.283    46.488    43.458  0.9875 -0.1504  0.0471
 
              Baa    -0.0071    -3.771    -1.346    -1.258  0.1492  0.9632  0.2234
    10 H(1)   Bbb    -0.0027    -1.420    -0.507    -0.474 -0.6566 -0.0724  0.7508
              Bcc     0.0097     5.191     1.852     1.732  0.7394 -0.2587  0.6216
 
              Baa    -0.0104    -5.525    -1.972    -1.843  0.0810  0.9772  0.1960
    11 H(1)   Bbb    -0.0064    -3.420    -1.220    -1.141  0.9903 -0.1012  0.0953
              Bcc     0.0168     8.945     3.192     2.984 -0.1129 -0.1864  0.9760
 
              Baa    -0.0331    -4.448    -1.587    -1.484  0.6535 -0.2231  0.7233
    12 C(13)  Bbb    -0.0327    -4.382    -1.564    -1.462  0.1486  0.9748  0.1664
              Bcc     0.0658     8.830     3.151     2.945  0.7422  0.0013 -0.6702
 
              Baa    -0.0098    -5.249    -1.873    -1.751  0.2269  0.6850  0.6923
    13 H(1)   Bbb    -0.0065    -3.492    -1.246    -1.165  0.8676 -0.4651  0.1758
              Bcc     0.0164     8.741     3.119     2.916 -0.4424 -0.5608  0.6999
 
              Baa    -0.0090    -4.825    -1.722    -1.609  0.1813  0.9610  0.2088
    14 H(1)   Bbb    -0.0005    -0.267    -0.095    -0.089  0.2530 -0.2507  0.9344
              Bcc     0.0095     5.092     1.817     1.699  0.9503 -0.1165 -0.2886
 
              Baa    -0.0098    -5.245    -1.872    -1.750  0.0612  0.9395 -0.3370
    15 H(1)   Bbb    -0.0064    -3.437    -1.227    -1.147  0.9601  0.0369  0.2772
              Bcc     0.0163     8.682     3.098     2.896 -0.2729  0.3405  0.8998
 

 ---------------------------------------------------------------------------------

 1\1\GINC-N189\Scan\UB2PLYPD3-FC\CC-pVTZ\C4H9O2(2)\ROOT\17-Jun-2019\0\\
 # opt=(calcfc,ts,noeigentest,maxcyc=500,modredundant) uB2PLYPD3/cc-pvt
 z scf=maxcyc=500 nosymm\\Title Card Required\\0,2\C,1.2773319029,0.564
 3183271,0.0773328301\C,1.5364323976,0.2492555984,1.3250277745\C,-1.984
 327359,-0.9220872927,0.8152908479\H,-1.0919838382,-1.4876532258,0.5433
 89499\H,-2.3949967826,-1.3011759519,1.7490381066\H,-2.7265396305,-0.99
 1723482,0.0220129538\O,-1.6585164928,0.4360220317,1.0761699096\O,-1.20
 17138176,1.003185772,-0.1356038091\H,-0.0902463856,0.8471789242,-0.091
 19582\H,2.5450113546,-0.0022857902,1.6446146314\H,0.7566101167,0.23763
 20305,2.0754989732\C,2.0735561319,0.684452151,-1.1620937892\H,2.026826
 4808,1.6976954329,-1.5602238966\H,3.1204997668,0.439861204,-0.96352094
 13\H,1.702312155,0.0107942706,-1.9339052699\\Version=ES64L-G16RevB.01\
 HF=-307.5691994,-307.5690965,-307.5688259,-307.5684485,-307.5680541,-3
 07.5677211,-307.5674996,-307.5674287,-307.5675361,-307.5678095,-307.56
 81752,-307.568539,-307.5688299,-307.5690245,-307.5691101,-307.569086,-
 307.5689725,-307.5687967,-307.5685848,-307.5683689,-307.5681717,-307.5
 68019,-307.5679166,-307.5678498,-307.5678034,-307.5677599,-307.5677106
 ,-307.5676659,-307.5676416,-307.5676701,-307.5677836,-307.5679879,-307
 .5682693,-307.5685964,-307.5689069,-307.5691301,-307.5692043\MP2=-307.
 9523149,-307.9521959,-307.9518593,-307.951368,-307.9508241,-307.950343
 7,-307.9500131,-307.9498779,-307.9499637,-307.9502546,-307.9506595,-30
 7.9510674,-307.9514173,-307.9516877,-307.951856,-307.9518958,-307.9518
 068,-307.9516305,-307.951415,-307.9511889,-307.9509836,-307.9508214,-3
 07.950688,-307.9505628,-307.9504372,-307.9503189,-307.9502156,-307.950
 1321,-307.9500827,-307.950105,-307.9502484,-307.9505491,-307.9509769,-
 307.9514528,-307.9518906,-307.9522024,-307.9523156\PUHF=-307.5755759,-
 307.5754788,-307.5752283,-307.5748839,-307.5745271,-307.5742272,-307.5
 740254,-307.5739605,-307.5740601,-307.5743145,-307.5746619,-307.575013
 2,-307.5752969,-307.575488,-307.5755687,-307.5755415,-307.575429,-307.
 5752628,-307.5750672,-307.5748675,-307.5746848,-307.5745436,-307.57445
 07,-307.5743907,-307.5743462,-307.5742988,-307.5742447,-307.5741929,-3
 07.5741593,-307.5741767,-307.5742721,-307.574457,-307.5747185,-307.575
 0218,-307.575309,-307.575514,-307.5755809\PMP2-0=-307.9531585,-307.953
 0394,-307.9527057,-307.9522201,-307.9516834,-307.9512098,-307.9508836,
 -307.9507505,-307.950836,-307.9511246,-307.9515262,-307.9519307,-307.9
 522769,-307.9525441,-307.9527096,-307.9527477,-307.9526586,-307.952483
 9,-307.9522711,-307.9520475,-307.9518446,-307.9516843,-307.9515523,-30
 7.9514281,-307.9513039,-307.9511873,-307.9510856,-307.9510037,-307.950
 9553,-307.950978,-307.9511202,-307.9514177,-307.9518406,-307.9523103,-
 307.952742,-307.9530488,-307.9531591\S2=0.777759,0.777731,0.777806,0.7
 77984,0.778229,0.778479,0.778665,0.778769,0.778784,0.778711,0.778582,0
 .778429,0.778263,0.778109,0.777994,0.777934,0.777933,0.777987,0.778069
 ,0.778147,0.778222,0.778274,0.7783,0.778321,0.778377,0.778469,0.778572
 ,0.778676,0.778764,0.778824,0.778811,0.778718,0.778531,0.778301,0.7780
 72,0.777881,0.777759\S2-1=0.749114,0.749088,0.749094,0.749131,0.749193
 ,0.749259,0.749312,0.749351,0.749376,0.749386,0.749363,0.749309,0.7492
 29,0.74914,0.749075,0.749039,0.749031,0.74904,0.749051,0.749061,0.7490
 74,0.749084,0.749085,0.749091,0.749127,0.749193,0.749265,0.749341,0.74
 9414,0.749476,0.749514,0.749502,0.74943,0.749339,0.749248,0.749171,0.7
 49114\S2A=0.750541,0.75054,0.750543,0.750549,0.750557,0.750566,0.75057
 3,0.750577,0.750578,0.750575,0.75057,0.750564,0.750558,0.750552,0.7505
 48,0.750546,0.750547,0.750549,0.750552,0.750555,0.750557,0.750559,0.75
 056,0.750561,0.750562,0.750566,0.750569,0.750573,0.750577,0.750579,0.7
 50578,0.750574,0.750567,0.750559,0.750551,0.750545,0.750541\RMSD=8.153
 e-09,9.763e-09,3.710e-09,6.326e-09,6.637e-09,5.422e-09,9.978e-09,4.503
 e-09,6.011e-09,6.264e-09,8.345e-09,9.711e-09,7.072e-09,5.607e-09,9.343
 e-09,8.485e-09,6.645e-09,8.284e-09,4.874e-09,8.483e-09,8.375e-09,6.856
 e-09,8.085e-09,6.540e-09,6.267e-09,6.437e-09,6.551e-09,4.143e-09,8.046
 e-09,6.443e-09,5.622e-09,7.722e-09,8.348e-09,5.066e-09,3.952e-09,8.580
 e-09,8.891e-09\PG=C01 [X(C4H9O2)]\\@


 THOSE WHO TRY TO PASS CHEMISTRY OFF AS A NEW SCIENCE
 SHOW HOW LITTLE KNOWLEDGE THEY HAVE OF THE CHARACTER
 AND LITERATURE OF THE ANCIENTS.
   -- NICOLAS LEFEVRE
 "COURS DE CHYMIE" J.-N.LELOUP, PARIS, 1751
 Job cpu time:      14 days 23 hours  2 minutes  5.1 seconds.
 Elapsed time:       0 days 12 hours 43 minutes 30.8 seconds.
 File lengths (MBytes):  RWF=  57003 Int=      0 D2E=      0 Chk=     17 Scr=      1
 Normal termination of Gaussian 16 at Mon Jun 17 22:29:50 2019.
