 Entering Gaussian System, Link 0=g16
 Initial command:
 /ichec/packages/gaussian/16b01/l1.exe "/localscratch/347858/Gau-7852.inp" -scrdir="/localscratch/347858/"
 Entering Link 1 = /ichec/packages/gaussian/16b01/l1.exe PID=      8468.
  
 Copyright (c) 1988-2017, Gaussian, Inc.  All Rights Reserved.
  
 This is part of the Gaussian(R) 16 program.  It is based on
 the Gaussian(R) 09 system (copyright 2009, Gaussian, Inc.),
 the Gaussian(R) 03 system (copyright 2003, Gaussian, Inc.),
 the Gaussian(R) 98 system (copyright 1998, Gaussian, Inc.),
 the Gaussian(R) 94 system (copyright 1995, Gaussian, Inc.),
 the Gaussian 92(TM) system (copyright 1992, Gaussian, Inc.),
 the Gaussian 90(TM) system (copyright 1990, Gaussian, Inc.),
 the Gaussian 88(TM) system (copyright 1988, Gaussian, Inc.),
 the Gaussian 86(TM) system (copyright 1986, Carnegie Mellon
 University), and the Gaussian 82(TM) system (copyright 1983,
 Carnegie Mellon University). Gaussian is a federally registered
 trademark of Gaussian, Inc.
  
 This software contains proprietary and confidential information,
 including trade secrets, belonging to Gaussian, Inc.
  
 This software is provided under written license and may be
 used, copied, transmitted, or stored only in accord with that
 written license.
  
 The following legend is applicable only to US Government
 contracts under FAR:
  
                    RESTRICTED RIGHTS LEGEND
  
 Use, reproduction and disclosure by the US Government is
 subject to restrictions as set forth in subparagraphs (a)
 and (c) of the Commercial Computer Software - Restricted
 Rights clause in FAR 52.227-19.
  
 Gaussian, Inc.
 340 Quinnipiac St., Bldg. 40, Wallingford CT 06492
  
  
 ---------------------------------------------------------------
 Warning -- This program may not be used in any manner that
 competes with the business of Gaussian, Inc. or will provide
 assistance to any competitor of Gaussian, Inc.  The licensee
 of this program is prohibited from giving any competitor of
 Gaussian, Inc. access to this program.  By using this program,
 the user acknowledges that Gaussian, Inc. is engaged in the
 business of creating and licensing software in the field of
 computational chemistry and represents and warrants to the
 licensee that it is not a competitor of Gaussian, Inc. and that
 it will not use this program in any manner prohibited above.
 ---------------------------------------------------------------
  

 Cite this work as:
 Gaussian 16, Revision B.01,
 M. J. Frisch, G. W. Trucks, H. B. Schlegel, G. E. Scuseria, 
 M. A. Robb, J. R. Cheeseman, G. Scalmani, V. Barone, 
 G. A. Petersson, H. Nakatsuji, X. Li, M. Caricato, A. V. Marenich, 
 J. Bloino, B. G. Janesko, R. Gomperts, B. Mennucci, H. P. Hratchian, 
 J. V. Ortiz, A. F. Izmaylov, J. L. Sonnenberg, D. Williams-Young, 
 F. Ding, F. Lipparini, F. Egidi, J. Goings, B. Peng, A. Petrone, 
 T. Henderson, D. Ranasinghe, V. G. Zakrzewski, J. Gao, N. Rega, 
 G. Zheng, W. Liang, M. Hada, M. Ehara, K. Toyota, R. Fukuda, 
 J. Hasegawa, M. Ishida, T. Nakajima, Y. Honda, O. Kitao, H. Nakai, 
 T. Vreven, K. Throssell, J. A. Montgomery, Jr., J. E. Peralta, 
 F. Ogliaro, M. J. Bearpark, J. J. Heyd, E. N. Brothers, K. N. Kudin, 
 V. N. Staroverov, T. A. Keith, R. Kobayashi, J. Normand, 
 K. Raghavachari, A. P. Rendell, J. C. Burant, S. S. Iyengar, 
 J. Tomasi, M. Cossi, J. M. Millam, M. Klene, C. Adamo, R. Cammi, 
 J. W. Ochterski, R. L. Martin, K. Morokuma, O. Farkas, 
 J. B. Foresman, and D. J. Fox, Gaussian, Inc., Wallingford CT, 2016.
 
 ******************************************
 Gaussian 16:  ES64L-G16RevB.01 20-Dec-2017
                12-Jun-2019 
 ******************************************
 %mem=80GB
 %nproc=40
 Will use up to   40 processors via shared memory.
 ----------------------------------------------------------------------
 # opt=(calcfc,ts,noeigentest,maxcyc=500,modredundant) uB2PLYPD3/cc-pvt
 z scf=maxcyc=500 nosymm
 ----------------------------------------------------------------------
 1/5=1,6=500,10=4,11=1,18=120,38=1/1,3;
 2/9=110,12=2,15=1,17=6,18=5,40=1/2;
 3/5=16,6=1,11=2,25=1,30=1,71=2,74=-60,116=2,140=1/1,2,3;
 4//1;
 5/5=2,7=500,38=5/2;
 8/6=3,8=1,10=1,19=11,30=-1/1;
 9/15=3,16=-3/6;
 11/6=1,8=1,15=11,17=12,24=-1,27=1,28=-2,29=300,31=1,32=6,42=3/1,2,10;
 10/6=2,21=1,31=1/2;
 8/6=4,8=1,10=1,19=11,30=-1/11,4;
 10/5=1,20=4,31=1/2;
 11/12=2,14=11,16=1,17=2,28=-2,31=1,42=3,76=2/2,10,12;
 6/7=2,8=2,9=2,10=2/1;
 7/10=1,12=2,25=1,30=1,44=2/1,2,3,16;
 1/5=1,6=500,10=4,11=1,18=20/3(2);
 2/9=110,15=1/2;
 99//99;
 2/9=110,15=1/2;
 3/5=16,6=1,11=2,25=1,30=1,71=1,74=-60,116=2/1,2,3;
 4/5=5,16=3,69=1/1;
 5/5=2,7=500,38=5/2;
 8/6=4,10=1/1;
 9/15=2,16=-3/6;
 10/5=1,31=1/2;
 7/12=2,30=1/1,2,3,16;
 1/5=1,6=500,11=1,18=20/3(-8);
 2/9=110,15=1/2;
 6/7=2,8=2,9=2,10=2/1;
 99/9=10/99;
 -------------------
 Title Card Required
 -------------------
 Symbolic Z-matrix:
 Charge =  0 Multiplicity = 2
 C                     1.56429   0.64659  -0.18094 
 H                     0.89266   1.45707  -0.46951 
 H                     2.32135   1.0206    0.50514 
 H                     2.03423   0.22309  -1.06681 
 O                     0.86625  -0.35447   0.54494 
 O                    -0.06641  -0.94656  -0.33013 
 C                    -2.16004   0.42132   0.04783 
 H                    -2.94067  -0.32759   0.06406 
 H                    -1.91651   0.85813   1.00785 
 H                    -1.01626  -0.34246  -0.17679 
 H                    -2.19895   1.11194  -0.78367 
 
 Add virtual bond connecting atoms H10        and C7         Dist= 2.63D+00.
 The following ModRedundant input section has been read:
 D    *          6       5    *    R                                           
 D       1       5       6       7 S  36 10.000                                
 

 GradGradGradGradGradGradGradGradGradGradGradGradGradGradGradGradGradGrad
 Berny optimization.
 Initialization pass.
                           ----------------------------
                           !    Initial Parameters    !
                           ! (Angstroms and Degrees)  !
 --------------------------                            --------------------------
 ! Name  Definition              Value          Derivative Info.                !
 --------------------------------------------------------------------------------
 ! R1    R(1,2)                  1.0914         calculate D2E/DX2 analytically  !
 ! R2    R(1,3)                  1.088          calculate D2E/DX2 analytically  !
 ! R3    R(1,4)                  1.0886         calculate D2E/DX2 analytically  !
 ! R4    R(1,5)                  1.42           calculate D2E/DX2 analytically  !
 ! R5    R(5,6)                  1.4093         calculate D2E/DX2 analytically  !
 ! R6    R(6,10)                 1.1361         calculate D2E/DX2 analytically  !
 ! R7    R(7,8)                  1.0819         calculate D2E/DX2 analytically  !
 ! R8    R(7,9)                  1.0825         calculate D2E/DX2 analytically  !
 ! R9    R(7,10)                 1.3936         calculate D2E/DX2 analytically  !
 ! R10   R(7,11)                 1.0816         calculate D2E/DX2 analytically  !
 ! A1    A(2,1,3)              109.8554         calculate D2E/DX2 analytically  !
 ! A2    A(2,1,4)              109.8401         calculate D2E/DX2 analytically  !
 ! A3    A(2,1,5)              110.8646         calculate D2E/DX2 analytically  !
 ! A4    A(3,1,4)              110.2739         calculate D2E/DX2 analytically  !
 ! A5    A(3,1,5)              105.1922         calculate D2E/DX2 analytically  !
 ! A6    A(4,1,5)              110.7301         calculate D2E/DX2 analytically  !
 ! A7    A(1,5,6)              107.7039         calculate D2E/DX2 analytically  !
 ! A8    A(5,6,10)             104.2467         calculate D2E/DX2 analytically  !
 ! A9    A(8,7,9)              115.3628         calculate D2E/DX2 analytically  !
 ! A10   A(8,7,10)             102.4288         calculate D2E/DX2 analytically  !
 ! A11   A(8,7,11)             115.3134         calculate D2E/DX2 analytically  !
 ! A12   A(9,7,10)             100.3386         calculate D2E/DX2 analytically  !
 ! A13   A(9,7,11)             115.6096         calculate D2E/DX2 analytically  !
 ! A14   A(10,7,11)            104.8075         calculate D2E/DX2 analytically  !
 ! A15   L(6,10,7,2,-1)        178.8576         calculate D2E/DX2 analytically  !
 ! A16   L(6,10,7,2,-2)        181.6637         calculate D2E/DX2 analytically  !
 ! D1    D(2,1,5,6)             65.6            calculate D2E/DX2 analytically  !
 ! D2    D(3,1,5,6)           -175.7049         calculate D2E/DX2 analytically  !
 ! D3    D(4,1,5,6)            -56.5821         calculate D2E/DX2 analytically  !
 ! D4    D(1,5,6,7)            -92.0243         Scan                            !
 ! D5    D(5,6,7,8)           -138.243          calculate D2E/DX2 analytically  !
 ! D6    D(5,6,7,9)            -19.2794         calculate D2E/DX2 analytically  !
 ! D7    D(5,6,7,11)           100.6415         calculate D2E/DX2 analytically  !
 --------------------------------------------------------------------------------
 Trust Radius=3.00D-01 FncErr=1.00D-07 GrdErr=1.00D-07 EigMax=2.50D+02 EigMin=1.00D-04
 Number of optimizations in scan=  37
 Number of steps in this run=    100 maximum allowed number of steps=    100.
 Search for a saddle point of order  1.
 GradGradGradGradGradGradGradGradGradGradGradGradGradGradGradGradGradGrad

                          Input orientation:                          
 ---------------------------------------------------------------------
 Center     Atomic      Atomic             Coordinates (Angstroms)
 Number     Number       Type             X           Y           Z
 ---------------------------------------------------------------------
      1          6           0        1.564286    0.646589   -0.180944
      2          1           0        0.892655    1.457066   -0.469512
      3          1           0        2.321353    1.020599    0.505135
      4          1           0        2.034230    0.223093   -1.066806
      5          8           0        0.866245   -0.354470    0.544938
      6          8           0       -0.066410   -0.946560   -0.330133
      7          6           0       -2.160040    0.421321    0.047827
      8          1           0       -2.940665   -0.327592    0.064056
      9          1           0       -1.916512    0.858126    1.007852
     10          1           0       -1.016265   -0.342462   -0.176793
     11          1           0       -2.198951    1.111944   -0.783670
 ---------------------------------------------------------------------
                    Distance matrix (angstroms):
                    1          2          3          4          5
     1  C    0.000000
     2  H    1.091436   0.000000
     3  H    1.087997   1.783709   0.000000
     4  H    1.088553   1.783996   1.785904   0.000000
     5  O    1.419960   2.076408   2.002433   2.072556   0.000000
     6  O    2.284634   2.591650   3.204497   2.514650   1.409314
     7  C    3.738139   3.264867   4.544353   4.344376   3.163443
     8  H    4.615586   4.261929   5.449863   5.131441   3.837256
     9  H    3.684283   3.229977   4.270670   4.507309   3.070572
    10  H    2.763600   2.639690   3.669149   3.227614   2.016156
    11  H    3.839503   3.126633   4.701331   4.334748   3.648424
                    6          7          8          9         10
     6  O    0.000000
     7  C    2.529276   0.000000
     8  H    2.966454   1.081901   0.000000
     9  H    2.910322   1.082475   1.829089   0.000000
    10  H    1.136077   1.393571   1.939470   1.911868   0.000000
    11  H    2.998477   1.081601   1.827852   1.831324   1.970366
                   11
    11  H    0.000000
 Symmetry turned off by external request.
 Stoichiometry    C2H7O2(2)
 Framework group  C1[X(C2H7O2)]
 Deg. of freedom    27
 Full point group                 C1      NOp   1
 Rotational constants (GHZ):          13.0042333           3.7093383           3.2655184
 Standard basis: CC-pVTZ (5D, 7F)
   218 basis functions,   327 primitive gaussians,   245 cartesian basis functions
    18 alpha electrons       17 beta electrons
       nuclear repulsion energy       130.7720938067 Hartrees.
 NAtoms=   11 NActive=   11 NUniq=   11 SFac= 1.00D+00 NAtFMM=   60 NAOKFM=F Big=F
 Integral buffers will be    131072 words long.
 Raffenetti 2 integral format.
 Two-electron integral symmetry is turned off.
 Nuclear repulsion after empirical dispersion term =      130.7683987555 Hartrees.
 One-electron integrals computed using PRISM.
 NBasis=   218 RedAO= T EigKep=  1.76D-03  NBF=   218
 NBsUse=   218 1.00D-06 EigRej= -1.00D+00 NBFU=   218
 ExpMin= 1.03D-01 ExpMax= 1.53D+04 ExpMxC= 5.22D+02 IAcc=3 IRadAn=         5 AccDes= 0.00D+00
 Harris functional with IExCor=  419 and IRadAn=       5 diagonalized for initial guess.
 HarFok:  IExCor=  419 AccDes= 0.00D+00 IRadAn=         5 IDoV= 1 UseB2=F ITyADJ=14
 ICtDFT=  3500011 ScaDFX=  1.000000  1.000000  1.000000  1.000000
 FoFCou: FMM=F IPFlag=           0 FMFlag=      100000 FMFlg1=           0
         NFxFlg=           0 DoJE=T BraDBF=F KetDBF=T FulRan=T
         wScrn=  0.000000 ICntrl=       500 IOpCl=  0 I1Cent=   200000004 NGrid=           0
         NMat0=    1 NMatS0=      1 NMatT0=    0 NMatD0=    1 NMtDS0=    0 NMtDT0=    0
 Symmetry not used in FoFCou.
 Initial guess <Sx>= 0.0000 <Sy>= 0.0000 <Sz>= 0.5000 <S**2>= 0.7500 S= 0.5000
 Keep R1 and R2 ints in memory in canonical form, NReq=612885324.
 Requested convergence on RMS density matrix=1.00D-08 within 500 cycles.
 Requested convergence on MAX density matrix=1.00D-06.
 Requested convergence on             energy=1.00D-06.
 No special actions if energy rises.
 Integral accuracy reduced to 1.0D-05 until final iterations.
 Initial convergence to 1.0D-05 achieved.  Increase integral accuracy.
 SCF Done:  E(UB2PLYPD3) =  -230.321143600     A.U. after   19 cycles
            NFock= 19  Conv=0.36D-08     -V/T= 2.0042
 <Sx>= 0.0000 <Sy>= 0.0000 <Sz>= 0.5000 <S**2>= 0.7681 S= 0.5090
 <L.S>=  0.00000000000    
 Annihilation of the first spin contaminant:
 S**2 before annihilation     0.7681,   after     0.7501
 DoSCS=T DFT=T ScalE2(SS,OS)=  0.270000  0.270000
 ExpMin= 1.03D-01 ExpMax= 1.53D+04 ExpMxC= 5.22D+02 IAcc=3 IRadAn=         5 AccDes= 0.00D+00
 HarFok:  IExCor=  205 AccDes= 0.00D+00 IRadAn=         5 IDoV=-2 UseB2=F ITyADJ=14
 ICtDFT= 12500011 ScaDFX=  1.000000  1.000000  1.000000  1.000000
 Range of M.O.s used for correlation:     5   218
 NBasis=   218 NAE=    18 NBE=    17 NFC=     4 NFV=     0
 NROrb=    214 NOA=    14 NOB=    13 NVA=   200 NVB=   201

 **** Warning!!: The largest alpha MO coefficient is  0.10781799D+02


 **** Warning!!: The largest beta MO coefficient is  0.10591113D+02

 DoSCS=T DFT=T ScalE2(SS,OS)=  0.270000  0.270000
 Disk-based method using ON**2 memory for 14 occupieds at a time.
 Permanent disk used for amplitudes=    18079500 words.
 Estimated scratch disk usage=   369728064 words.
 Actual    scratch disk usage=   357218880 words.
 JobTyp=2 Pass  1:  I=   5 to  18 NPSUse= 40 ParTrn=T ParDer=T DoDerP=T.
 (rs|ai) integrals will be sorted in core.
 Actual    scratch disk usage=   357218880 words.
 JobTyp=3 Pass  1:  I=   5 to  17 NPSUse= 40 ParTrn=T ParDer=T DoDerP=T.
 (rs|ai) integrals will be sorted in core.
 Spin components of T(2) and E(2):
     alpha-alpha T2 =       0.4437428045D-01 E2=     -0.3429073998D-01
     alpha-beta  T2 =       0.2729460893D+00 E2=     -0.2114439563D+00
     beta-beta   T2 =       0.4650198412D-01 E2=     -0.3203801336D-01
 (S**2,0)=  0.76810D+00           (S**2,1)=  0.74295D+00
 Scaling Projection term by:   0.270000
 E(PUHF)=      -0.23032720084D+03        E(PMP2)=      -0.23059942072D+03
 E2(B2PLYPD3) =    -0.2777727096D+00 E(B2PLYPD3) =    -0.23059891630972D+03
 G2DrvN: will do    12 centers at a time, making    1 passes.
 Calling FoFCou, ICntrl=  3107 FMM=F I1Cent=   0 AccDes= 0.00D+00.
 End of G2Drv F.D. properties file   721 does not exist.
 End of G2Drv F.D. properties file   722 does not exist.
 End of G2Drv F.D. properties file   788 does not exist.
          IDoAtm=11111111111
          Differentiating once with respect to electric field.
                with respect to dipole field.
          Differentiating once with respect to nuclear coordinates.
 Keep R1 and R2 ints in memory in canonical form, NReq=612756314.
          There are    36 degrees of freedom in the 1st order CPHF.  IDoFFX=6 NUNeed=    36.
     33 vectors produced by pass  0 Test12= 1.95D-14 2.78D-09 XBig12= 5.34D+01 4.68D+00.
 AX will form    33 AO Fock derivatives at one time.
     33 vectors produced by pass  1 Test12= 1.95D-14 2.78D-09 XBig12= 2.77D+00 2.70D-01.
     33 vectors produced by pass  2 Test12= 1.95D-14 2.78D-09 XBig12= 1.29D-01 6.27D-02.
     33 vectors produced by pass  3 Test12= 1.95D-14 2.78D-09 XBig12= 2.20D-03 6.02D-03.
     33 vectors produced by pass  4 Test12= 1.95D-14 2.78D-09 XBig12= 3.36D-05 6.93D-04.
     33 vectors produced by pass  5 Test12= 1.95D-14 2.78D-09 XBig12= 3.18D-07 8.67D-05.
     32 vectors produced by pass  6 Test12= 1.95D-14 2.78D-09 XBig12= 3.14D-09 7.70D-06.
     12 vectors produced by pass  7 Test12= 1.95D-14 2.78D-09 XBig12= 2.07D-11 4.26D-07.
      3 vectors produced by pass  8 Test12= 1.95D-14 2.78D-09 XBig12= 1.24D-13 3.15D-08.
      1 vectors produced by pass  9 Test12= 1.95D-14 2.78D-09 XBig12= 1.01D-15 3.17D-09.
 InvSVY:  IOpt=1 It=  1 EMax= 4.44D-15
 Solved reduced A of dimension   246 with    36 vectors.
 End of Minotr F.D. properties file   721 does not exist.
 End of Minotr F.D. properties file   722 does not exist.
 End of Minotr F.D. properties file   788 does not exist.
 MDV= 10737418240.
 DoSCS=T DFT=T ScalE2(SS,OS)=  0.270000  0.270000
 Form MO integral derivatives with frozen-active canonical formalism.
 Discarding MO integrals.
 Reordered first order wavefunction length =     73075836
 In DefCFB: NBatch=  1 ICI= 18 ICA=201 LFMax= 67
            Large arrays: LIAPS=  1499111880 LIARS=   434340900 words.
 In DefCFB: NBatch=  1 ICI= 18 ICA=201 LFMax= 67
            Large arrays: LIAPS=  1499111880 LIARS=   434340900 words.
 Semi-Direct transformation.
 ModeAB=           4 MOrb=            18 LenV=   10735891527
 LASXX=     88207281 LTotXX=    88207281 LenRXX=   178224822
 LTotAB=    90017541 MaxLAS=   115008516 LenRXY=           0
 NonZer=   266432103 LenScr=   401215488 LnRSAI=   115008516
 LnScr1=   173260800 LExtra=           0 Total=    867709626
 MaxDsk=          -1 SrtSym=           T ITran=            4
 JobTyp=1 Pass  1:  I=   1 to  18.
 (rs|ai) integrals will be sorted in core.
 ModeAB=           4 MOrb=            17 LenV=   10735891527
 LASXX=     83565217 LTotXX=    83565217 LenRXX=   155322217
 LTotAB=    71757000 MaxLAS=   108619154 LenRXY=           0
 NonZer=   238887434 LenScr=   359737344 LnRSAI=   108619154
 LnScr1=   163693056 LExtra=           0 Total=    787371771
 MaxDsk=          -1 SrtSym=           T ITran=            4
 JobTyp=2 Pass  1:  I=   1 to  17.
 (rs|ai) integrals will be sorted in core.
 DoSCS=T DFT=T ScalE2(SS,OS)=  0.270000  0.270000
 Spin components of T(2) and E(2):
     alpha-alpha T2 =       0.4437428045D-01 E2=     -0.3429073998D-01
     alpha-beta  T2 =       0.2729460893D+00 E2=     -0.2114439563D+00
     beta-beta   T2 =       0.4650198412D-01 E2=     -0.3203801336D-01
 E2(B2PLYPD3) =    -0.2777727096D+00 E(B2PLYPD3) =    -0.23059891630972D+03
 (S**2,0)=  0.76810D+00           (S**2,1)=  0.74295D+00
 Scaling Projection term by:   0.270000
 E(PUHF)=      -0.23032720084D+03        E(PMP2)=      -0.23059942072D+03
          IDoAtm=11111111111
          Differentiating once with respect to electric field.
                with respect to dipole field.
          Differentiating once with respect to nuclear coordinates.
 Keep R1 and R2 ints in memory in canonical form, NReq=612893468.
          There are     1 degrees of freedom in the 1st order CPHF.  IDoFFX=0 NUNeed=     1.
 LinEq1:  Iter=  0 NonCon=     1 RMS=1.22D-03 Max=7.29D-02 NDo=     1
 AX will form     1 AO Fock derivatives at one time.
 LinEq1:  Iter=  1 NonCon=     1 RMS=3.75D-04 Max=8.37D-03 NDo=     1
 LinEq1:  Iter=  2 NonCon=     1 RMS=2.03D-04 Max=7.69D-03 NDo=     1
 LinEq1:  Iter=  3 NonCon=     1 RMS=8.26D-05 Max=1.17D-03 NDo=     1
 LinEq1:  Iter=  4 NonCon=     1 RMS=4.38D-05 Max=7.55D-04 NDo=     1
 LinEq1:  Iter=  5 NonCon=     1 RMS=3.23D-05 Max=8.19D-04 NDo=     1
 LinEq1:  Iter=  6 NonCon=     1 RMS=1.88D-05 Max=5.99D-04 NDo=     1
 LinEq1:  Iter=  7 NonCon=     1 RMS=4.82D-06 Max=8.21D-05 NDo=     1
 LinEq1:  Iter=  8 NonCon=     1 RMS=1.56D-06 Max=2.74D-05 NDo=     1
 LinEq1:  Iter=  9 NonCon=     1 RMS=4.94D-07 Max=9.02D-06 NDo=     1
 LinEq1:  Iter= 10 NonCon=     1 RMS=1.64D-07 Max=2.58D-06 NDo=     1
 LinEq1:  Iter= 11 NonCon=     1 RMS=5.19D-08 Max=6.31D-07 NDo=     1
 LinEq1:  Iter= 12 NonCon=     1 RMS=2.10D-08 Max=3.25D-07 NDo=     1
 LinEq1:  Iter= 13 NonCon=     1 RMS=8.19D-09 Max=1.14D-07 NDo=     1
 LinEq1:  Iter= 14 NonCon=     1 RMS=2.49D-09 Max=6.35D-08 NDo=     1
 LinEq1:  Iter= 15 NonCon=     1 RMS=7.13D-10 Max=2.85D-08 NDo=     1
 LinEq1:  Iter= 16 NonCon=     1 RMS=2.31D-10 Max=8.95D-09 NDo=     1
 LinEq1:  Iter= 17 NonCon=     1 RMS=7.45D-11 Max=2.03D-09 NDo=     1
 LinEq1:  Iter= 18 NonCon=     0 RMS=1.87D-11 Max=2.65D-10 NDo=     1
 Linear equations converged to 1.000D-10 1.000D-09 after    18 iterations.
 End of Minotr F.D. properties file   721 does not exist.
 End of Minotr F.D. properties file   722 does not exist.
 End of Minotr F.D. properties file   788 does not exist.
 Symmetrizing basis deriv contribution to polar:
 IMax=3 JMax=2 DiffMx= 0.00D+00
 G2DrvN: will do    12 centers at a time, making    1 passes.
 Calling FoFCou, ICntrl=  3107 FMM=F I1Cent=   0 AccDes= 0.00D+00.
 End of G2Drv F.D. properties file   721 does not exist.
 End of G2Drv F.D. properties file   722 does not exist.
 End of G2Drv F.D. properties file   788 does not exist.
 DoSCS=T DFT=T ScalE2(SS,OS)=  0.270000  0.270000
 R2 and R3 integrals will be kept in memory, NReq=   915591705.
 DD1Dir will call FoFMem   1 times, MxPair=       902
 NAB=   306 NAA=   153 NBB=   136.
 Discarding MO integrals.

 **********************************************************************

            Population analysis using the SCF Density.

 **********************************************************************

 Alpha  occ. eigenvalues --  -19.78660 -19.78639 -10.66119 -10.64075  -1.27549
 Alpha  occ. eigenvalues --   -1.02395  -0.83017  -0.77568  -0.61115  -0.55882
 Alpha  occ. eigenvalues --   -0.54583  -0.50331  -0.49975  -0.49800  -0.44180
 Alpha  occ. eigenvalues --   -0.37846  -0.36838  -0.31392
 Alpha virt. eigenvalues --    0.07343   0.10550   0.12804   0.14258   0.15164
 Alpha virt. eigenvalues --    0.15561   0.16751   0.20200   0.26921   0.28087
 Alpha virt. eigenvalues --    0.28502   0.31346   0.32714   0.36260   0.44606
 Alpha virt. eigenvalues --    0.48313   0.49083   0.50278   0.51210   0.51967
 Alpha virt. eigenvalues --    0.53245   0.53897   0.54403   0.54546   0.57363
 Alpha virt. eigenvalues --    0.59866   0.65938   0.68054   0.71230   0.74317
 Alpha virt. eigenvalues --    0.78845   0.83712   0.89170   0.90381   0.91866
 Alpha virt. eigenvalues --    0.94221   0.94786   0.96098   1.02638   1.03595
 Alpha virt. eigenvalues --    1.04334   1.05857   1.06673   1.11247   1.12245
 Alpha virt. eigenvalues --    1.13704   1.16083   1.18173   1.21317   1.25215
 Alpha virt. eigenvalues --    1.32482   1.36890   1.37283   1.38592   1.39102
 Alpha virt. eigenvalues --    1.39868   1.42815   1.43998   1.49019   1.52292
 Alpha virt. eigenvalues --    1.62155   1.66621   1.69533   1.78505   1.83519
 Alpha virt. eigenvalues --    1.89392   1.97349   2.03358   2.10564   2.13801
 Alpha virt. eigenvalues --    2.19639   2.25284   2.30416   2.32705   2.34991
 Alpha virt. eigenvalues --    2.38623   2.42811   2.49340   2.52782   2.55649
 Alpha virt. eigenvalues --    2.67963   2.71214   2.74222   2.83293   2.85747
 Alpha virt. eigenvalues --    2.88346   2.91170   2.91465   2.92745   2.93688
 Alpha virt. eigenvalues --    2.94488   2.96412   3.00735   3.04574   3.11163
 Alpha virt. eigenvalues --    3.12392   3.13867   3.14908   3.16612   3.18500
 Alpha virt. eigenvalues --    3.20998   3.21558   3.34978   3.40238   3.40333
 Alpha virt. eigenvalues --    3.40756   3.42942   3.44375   3.48961   3.49662
 Alpha virt. eigenvalues --    3.51448   3.53662   3.54403   3.55761   3.57008
 Alpha virt. eigenvalues --    3.59279   3.61341   3.64346   3.79573   3.81206
 Alpha virt. eigenvalues --    3.82758   3.84589   3.86434   3.87251   3.91588
 Alpha virt. eigenvalues --    3.95724   3.96085   4.00529   4.02813   4.05394
 Alpha virt. eigenvalues --    4.07000   4.08648   4.11405   4.17058   4.17949
 Alpha virt. eigenvalues --    4.19935   4.21030   4.21562   4.25585   4.35457
 Alpha virt. eigenvalues --    4.37299   4.42509   4.43375   4.50664   4.54846
 Alpha virt. eigenvalues --    4.62184   4.68441   4.80010   4.81228   4.89007
 Alpha virt. eigenvalues --    4.94242   4.95958   4.98599   4.99059   4.99837
 Alpha virt. eigenvalues --    5.02911   5.06374   5.11008   5.12890   5.22469
 Alpha virt. eigenvalues --    5.23787   5.25565   5.29737   5.30576   5.34664
 Alpha virt. eigenvalues --    5.36167   5.39343   5.39954   5.46755   5.59152
 Alpha virt. eigenvalues --    5.67868   5.71033   5.75676   5.81577   5.86246
 Alpha virt. eigenvalues --    5.88884   5.92675   5.96040   6.04052   6.08780
 Alpha virt. eigenvalues --    6.24958   6.34489   6.37760   6.42084   6.63529
 Alpha virt. eigenvalues --    6.74528   6.75653   6.82496   6.94695   7.04545
 Alpha virt. eigenvalues --    7.06134   7.17565   7.40316   7.42056   7.58392
 Alpha virt. eigenvalues --    7.73415   9.88733  10.65841  13.27272  13.41398
  Beta  occ. eigenvalues --  -19.78529 -19.77132 -10.66126 -10.62742  -1.25766
  Beta  occ. eigenvalues --   -0.99672  -0.79108  -0.76750  -0.57803  -0.54675
  Beta  occ. eigenvalues --   -0.54278  -0.49309  -0.49112  -0.46630  -0.43343
  Beta  occ. eigenvalues --   -0.35717  -0.33951
  Beta virt. eigenvalues --   -0.05327   0.07663   0.10811   0.13465   0.14477
  Beta virt. eigenvalues --    0.15413   0.15705   0.16879   0.21007   0.28296
  Beta virt. eigenvalues --    0.28359   0.29554   0.31744   0.32842   0.37336
  Beta virt. eigenvalues --    0.44887   0.49472   0.49687   0.51621   0.52244
  Beta virt. eigenvalues --    0.53000   0.53793   0.54618   0.55351   0.55828
  Beta virt. eigenvalues --    0.58397   0.60440   0.66175   0.68237   0.71945
  Beta virt. eigenvalues --    0.75080   0.79509   0.84131   0.89545   0.90569
  Beta virt. eigenvalues --    0.91765   0.94302   0.95216   0.96280   1.02899
  Beta virt. eigenvalues --    1.03964   1.04701   1.06319   1.08291   1.12216
  Beta virt. eigenvalues --    1.12861   1.14431   1.16503   1.18385   1.21791
  Beta virt. eigenvalues --    1.25591   1.32753   1.37299   1.37871   1.38648
  Beta virt. eigenvalues --    1.39393   1.40072   1.43532   1.44534   1.49724
  Beta virt. eigenvalues --    1.52508   1.62237   1.67836   1.70280   1.78885
  Beta virt. eigenvalues --    1.86808   1.90654   1.97850   2.04172   2.10894
  Beta virt. eigenvalues --    2.15692   2.19772   2.26358   2.31429   2.33424
  Beta virt. eigenvalues --    2.35129   2.38777   2.43809   2.49550   2.53836
  Beta virt. eigenvalues --    2.56963   2.68443   2.72416   2.75419   2.83662
  Beta virt. eigenvalues --    2.87012   2.89258   2.91749   2.92249   2.93732
  Beta virt. eigenvalues --    2.94189   2.95540   2.97221   3.00994   3.04728
  Beta virt. eigenvalues --    3.11850   3.12470   3.14698   3.16097   3.18750
  Beta virt. eigenvalues --    3.19910   3.22082   3.22893   3.35151   3.39967
  Beta virt. eigenvalues --    3.40514   3.40987   3.43097   3.46114   3.49498
  Beta virt. eigenvalues --    3.50434   3.51614   3.53765   3.54578   3.55827
  Beta virt. eigenvalues --    3.56978   3.60040   3.61426   3.64776   3.79935
  Beta virt. eigenvalues --    3.81172   3.82482   3.84576   3.86608   3.87512
  Beta virt. eigenvalues --    3.91721   3.95822   3.96289   4.00596   4.02824
  Beta virt. eigenvalues --    4.05203   4.06791   4.08862   4.11432   4.17226
  Beta virt. eigenvalues --    4.18117   4.20078   4.21266   4.21822   4.25714
  Beta virt. eigenvalues --    4.35491   4.37642   4.42926   4.44943   4.51483
  Beta virt. eigenvalues --    4.55611   4.63245   4.68848   4.80305   4.81333
  Beta virt. eigenvalues --    4.89738   4.94501   4.96339   4.99244   4.99792
  Beta virt. eigenvalues --    5.00174   5.03258   5.06566   5.12359   5.14130
  Beta virt. eigenvalues --    5.22875   5.24607   5.25878   5.30111   5.30779
  Beta virt. eigenvalues --    5.35042   5.36470   5.39469   5.40763   5.47012
  Beta virt. eigenvalues --    5.59858   5.68515   5.72934   5.76192   5.82308
  Beta virt. eigenvalues --    5.86779   5.89366   5.92721   5.96340   6.05455
  Beta virt. eigenvalues --    6.09198   6.25254   6.36042   6.38987   6.43541
  Beta virt. eigenvalues --    6.64510   6.76694   6.77539   6.83756   6.96323
  Beta virt. eigenvalues --    7.05131   7.07509   7.19620   7.41976   7.42723
  Beta virt. eigenvalues --    7.60276   7.73982   9.89440  10.66909  13.28190
  Beta virt. eigenvalues --   13.41640
          Condensed to atoms (all electrons):
               1          2          3          4          5          6
     1  C    4.580021   0.392489   0.395363   0.409301   0.311527  -0.044844
     2  H    0.392489   0.688269  -0.033642  -0.062708  -0.048570  -0.002590
     3  H    0.395363  -0.033642   0.594650  -0.030560  -0.026414   0.006989
     4  H    0.409301  -0.062708  -0.030560   0.638330  -0.042985   0.003840
     5  O    0.311527  -0.048570  -0.026414  -0.042985   7.945203   0.071825
     6  O   -0.044844  -0.002590   0.006989   0.003840   0.071825   8.044686
     7  C   -0.002874   0.000425   0.000265  -0.000322   0.001860  -0.074616
     8  H    0.000082  -0.000142  -0.000001   0.000011   0.000388   0.000647
     9  H    0.000038  -0.001517   0.000010   0.000287   0.005025  -0.002255
    10  H    0.002483   0.004798  -0.000793   0.000438  -0.028822   0.219669
    11  H   -0.000018  -0.000526  -0.000034   0.000029   0.000206   0.000027
               7          8          9         10         11
     1  C   -0.002874   0.000082   0.000038   0.002483  -0.000018
     2  H    0.000425  -0.000142  -0.001517   0.004798  -0.000526
     3  H    0.000265  -0.000001   0.000010  -0.000793  -0.000034
     4  H   -0.000322   0.000011   0.000287   0.000438   0.000029
     5  O    0.001860   0.000388   0.005025  -0.028822   0.000206
     6  O   -0.074616   0.000647  -0.002255   0.219669   0.000027
     7  C    5.085972   0.397396   0.389835   0.187320   0.392388
     8  H    0.397396   0.528948  -0.022645  -0.006930  -0.025827
     9  H    0.389835  -0.022645   0.539875  -0.005826  -0.028822
    10  H    0.187320  -0.006930  -0.005826   0.411221  -0.003994
    11  H    0.392388  -0.025827  -0.028822  -0.003994   0.549460
          Atomic-Atomic Spin Densities.
               1          2          3          4          5          6
     1  C   -0.004740   0.003492   0.000638  -0.002808   0.000927  -0.002503
     2  H    0.003492   0.002389  -0.000751  -0.001425  -0.000837   0.003609
     3  H    0.000638  -0.000751  -0.001753   0.001101   0.000017  -0.000196
     4  H   -0.002808  -0.001425   0.001101   0.004243  -0.000735  -0.000339
     5  O    0.000927  -0.000837   0.000017  -0.000735   0.044024  -0.037937
     6  O   -0.002503   0.003609  -0.000196  -0.000339  -0.037937   0.536601
     7  C    0.001132  -0.004327   0.000117   0.001152   0.011487  -0.086001
     8  H   -0.000037   0.000110  -0.000001  -0.000020  -0.000247   0.001963
     9  H   -0.000240   0.000507  -0.000015  -0.000070  -0.001007   0.001916
    10  H    0.001367  -0.002966   0.000050   0.001242   0.008202  -0.032789
    11  H   -0.000080   0.000575  -0.000004  -0.000094  -0.000438   0.002538
               7          8          9         10         11
     1  C    0.001132  -0.000037  -0.000240   0.001367  -0.000080
     2  H   -0.004327   0.000110   0.000507  -0.002966   0.000575
     3  H    0.000117  -0.000001  -0.000015   0.000050  -0.000004
     4  H    0.001152  -0.000020  -0.000070   0.001242  -0.000094
     5  O    0.011487  -0.000247  -0.001007   0.008202  -0.000438
     6  O   -0.086001   0.001963   0.001916  -0.032789   0.002538
     7  C    0.746173   0.001515   0.003416   0.045329   0.000682
     8  H    0.001515  -0.025111   0.001700   0.002213   0.002642
     9  H    0.003416   0.001700  -0.027990   0.004159   0.002100
    10  H    0.045329   0.002213   0.004159  -0.112127   0.001393
    11  H    0.000682   0.002642   0.002100   0.001393  -0.024551
 Mulliken charges and spin densities:
               1          2
     1  C   -0.043566  -0.002854
     2  H    0.063716   0.000376
     3  H    0.094167  -0.000798
     4  H    0.084338   0.002246
     5  O   -0.189243   0.023458
     6  O   -0.223378   0.386862
     7  C   -0.377648   0.720674
     8  H    0.128074  -0.015273
     9  H    0.125994  -0.015526
    10  H    0.220435  -0.083927
    11  H    0.117112  -0.015238
 Sum of Mulliken charges =  -0.00000   1.00000
 Mulliken charges and spin densities with hydrogens summed into heavy atoms:
               1          2
     1  C    0.198655  -0.001030
     5  O   -0.189243   0.023458
     6  O   -0.002943   0.302935
     7  C   -0.006469   0.674637
 APT charges:
               1
     1  C    0.438334
     2  H   -0.043792
     3  H   -0.005526
     4  H   -0.030236
     5  O   -0.437042
     6  O    0.179978
     7  C    0.287287
     8  H   -0.012043
     9  H   -0.021009
    10  H   -0.331685
    11  H   -0.024265
 Sum of APT charges =  -0.00000
 APT charges with hydrogens summed into heavy atoms:
               1
     1  C    0.358779
     5  O   -0.437042
     6  O   -0.151707
     7  C    0.229970
 Electronic spatial extent (au):  <R**2>=            416.6920
 Charge=             -0.0000 electrons
 Dipole moment (field-independent basis, Debye):
    X=             -0.6991    Y=              2.2592    Z=             -0.4596  Tot=              2.4091
 Quadrupole moment (field-independent basis, Debye-Ang):
   XX=            -20.9301   YY=            -27.1159   ZZ=            -26.7081
   XY=              1.5071   XZ=             -0.6532   YZ=             -0.0328
 Traceless Quadrupole moment (field-independent basis, Debye-Ang):
   XX=              3.9879   YY=             -2.1978   ZZ=             -1.7901
   XY=              1.5071   XZ=             -0.6532   YZ=             -0.0328
 Octapole moment (field-independent basis, Debye-Ang**2):
  XXX=              3.5959  YYY=             -2.2946  ZZZ=              0.8384  XYY=              1.1874
  XXY=             -0.8395  XXZ=             -0.7459  XZZ=              0.8648  YZZ=             -0.0550
  YYZ=              0.1681  XYZ=              1.1858
 Hexadecapole moment (field-independent basis, Debye-Ang**3):
 XXXX=           -377.5151 YYYY=           -102.9951 ZZZZ=            -53.0554 XXXY=             12.4057
 XXXZ=              4.2811 YYYX=              0.0585 YYYZ=             -0.8199 ZZZX=              0.7715
 ZZZY=              0.9770 XXYY=            -80.8525 XXZZ=            -72.2795 YYZZ=            -24.7147
 XXYZ=              1.2372 YYXZ=              1.7713 ZZXY=             -0.9392
 N-N= 1.307683987555D+02 E-N=-8.026051472400D+02  KE= 2.293470568341D+02
  Exact polarizability:  72.660  -5.023  38.262  -0.168   1.257  33.531
 Approx polarizability:  55.995  -3.188  42.053   2.401   2.114  38.528
                          Isotropic Fermi Contact Couplings
        Atom                 a.u.       MegaHertz       Gauss      10(-4) cm-1
     1  C(13)             -0.00330      -3.71077      -1.32410      -1.23778
     2  H(1)               0.00234      10.45273       3.72980       3.48666
     3  H(1)              -0.00007      -0.31634      -0.11288      -0.10552
     4  H(1)               0.00051       2.26617       0.80862       0.75591
     5  O(17)              0.01403      -8.50770      -3.03576      -2.83786
     6  O(17)              0.03049     -18.48182      -6.59477      -6.16487
     7  C(13)              0.10126     113.84100      40.62130      37.97327
     8  H(1)              -0.00572     -25.57858      -9.12707      -8.53210
     9  H(1)              -0.00578     -25.81438      -9.21121      -8.61075
    10  H(1)              -0.02802    -125.23743     -44.68783     -41.77471
    11  H(1)              -0.00591     -26.42729      -9.42991      -8.81519
 --------------------------------------------------------
       Center         ----  Spin Dipole Couplings  ----
                      3XX-RR        3YY-RR        3ZZ-RR
 --------------------------------------------------------
     1   Atom        0.004730      0.000849     -0.005579
     2   Atom        0.001869      0.003819     -0.005688
     3   Atom        0.003438     -0.000137     -0.003301
     4   Atom        0.005027     -0.002289     -0.002738
     5   Atom        0.204999      0.004077     -0.209076
     6   Atom        0.458114      0.247683     -0.705796
     7   Atom        0.385978     -0.048938     -0.337040
     8   Atom        0.026339      0.021390     -0.047728
     9   Atom       -0.005182     -0.023093      0.028274
    10   Atom        0.142266     -0.023232     -0.119034
    11   Atom       -0.016006      0.000523      0.015482
 --------------------------------------------------------
                        XY            XZ            YZ
 --------------------------------------------------------
     1   Atom        0.005838      0.000530     -0.002421
     2   Atom        0.005243     -0.001591     -0.001922
     3   Atom        0.003921      0.000865      0.000749
     4   Atom        0.004226     -0.003769     -0.001919
     5   Atom       -0.268508     -0.051354     -0.007850
     6   Atom       -1.214240     -0.450371      0.419815
     7   Atom       -0.514007     -0.201508      0.133946
     8   Atom        0.026599     -0.008192      0.006299
     9   Atom       -0.011834      0.018759      0.036418
    10   Atom       -0.164420     -0.037939      0.025539
    11   Atom       -0.020350     -0.011154     -0.041719
 --------------------------------------------------------


 ---------------------------------------------------------------------------------
              Anisotropic Spin Dipole Couplings in Principal Axis System
 ---------------------------------------------------------------------------------

       Atom             a.u.   MegaHertz   Gauss  10(-4) cm-1        Axes

              Baa    -0.0070    -0.945    -0.337    -0.315 -0.2645  0.4562  0.8496
     1 C(13)  Bbb    -0.0020    -0.264    -0.094    -0.088 -0.5363  0.6626 -0.5228
              Bcc     0.0090     1.209     0.431     0.403  0.8015  0.5939 -0.0694
 
              Baa    -0.0061    -3.267    -1.166    -1.090  0.1089  0.1330  0.9851
     2 H(1)   Bbb    -0.0025    -1.328    -0.474    -0.443  0.7692 -0.6390  0.0013
              Bcc     0.0086     4.595     1.640     1.533  0.6296  0.7576 -0.1719
 
              Baa    -0.0035    -1.851    -0.660    -0.617  0.0069 -0.2270  0.9739
     3 H(1)   Bbb    -0.0026    -1.402    -0.500    -0.468 -0.5520  0.8112  0.1930
              Bcc     0.0061     3.253     1.161     1.085  0.8338  0.5389  0.1197
 
              Baa    -0.0044    -2.372    -0.846    -0.791  0.0056  0.6586  0.7524
     4 H(1)   Bbb    -0.0041    -2.185    -0.780    -0.729 -0.5273  0.6412 -0.5574
              Bcc     0.0085     4.557     1.626     1.520  0.8496  0.3937 -0.3509
 
              Baa    -0.2353    17.029     6.076     5.680  0.3584  0.4291  0.8291
     5 O(17)  Bbb    -0.1583    11.452     4.086     3.820  0.4420  0.7043 -0.5555
              Bcc     0.3936   -28.480   -10.162    -9.500  0.8223 -0.5656 -0.0627
 
              Baa    -0.8690    62.883    22.438    20.976  0.4687  0.7082 -0.5280
     6 O(17)  Bbb    -0.8584    62.115    22.164    20.719  0.5199  0.2621  0.8130
              Bcc     1.7275  -124.998   -44.603   -41.695  0.7142 -0.6556 -0.2453
 
              Baa    -0.3899   -52.317   -18.668   -17.451  0.3039  0.7084 -0.6370
     7 C(13)  Bbb    -0.3892   -52.229   -18.637   -17.422  0.4940  0.4545  0.7412
              Bcc     0.7791   104.546    37.305    34.873  0.8146 -0.5399 -0.2119
 
              Baa    -0.0500   -26.655    -9.511    -8.891  0.1552 -0.1441  0.9773
     8 H(1)   Bbb    -0.0007    -0.349    -0.124    -0.116 -0.6529  0.7275  0.2110
              Bcc     0.0506    27.004     9.636     9.008  0.7414  0.6708 -0.0188
 
              Baa    -0.0503   -26.852    -9.581    -8.957  0.3996  0.7917 -0.4622
     9 H(1)   Bbb     0.0007     0.373     0.133     0.124  0.8911 -0.4538 -0.0069
              Bcc     0.0496    26.479     9.448     8.832  0.2152  0.4091  0.8868
 
              Baa    -0.1265   -67.470   -24.075   -22.506 -0.2878 -0.6357  0.7163
    10 H(1)   Bbb    -0.1228   -65.521   -23.380   -21.855  0.4516  0.5695  0.6869
              Bcc     0.2493   132.991    47.455    44.361  0.8445 -0.5211 -0.1231
 
              Baa    -0.0498   -26.574    -9.482    -8.864  0.5608  0.6509  0.5117
    11 H(1)   Bbb    -0.0009    -0.488    -0.174    -0.163  0.8247 -0.3838 -0.4155
              Bcc     0.0507    27.062     9.657     9.027  0.0741 -0.6550  0.7520
 

 ---------------------------------------------------------------------------------

 Calling FoFJK, ICntrl=  10100127 FMM=F ISym2X=0 I1Cent= 0 IOpClX= 1 NMat=1 NMatS=1 NMatT=0.
 -------------------------------------------------------------------
 Center     Atomic                   Forces (Hartrees/Bohr)
 Number     Number              X              Y              Z
 -------------------------------------------------------------------
      1        6          -0.000000046    0.000000642    0.000000103
      2        1          -0.000000244    0.000000044   -0.000000182
      3        1           0.000000171    0.000000023    0.000000076
      4        1          -0.000000095    0.000000007    0.000000105
      5        8           0.000000824    0.000000183    0.000000747
      6        8          -0.000000697   -0.000001236   -0.000000752
      7        6           0.000000925    0.000000078    0.000000762
      8        1          -0.000000291   -0.000000200   -0.000000115
      9        1          -0.000000001    0.000000027   -0.000000371
     10        1          -0.000000724    0.000000288   -0.000000273
     11        1           0.000000177    0.000000144   -0.000000103
 -------------------------------------------------------------------
 Cartesian Forces:  Max     0.000001236 RMS     0.000000457
 FormGI is forming the generalized inverse of G from B-inverse, IUseBI=4.

 GradGradGradGradGradGradGradGradGradGradGradGradGradGradGradGradGradGrad
 Berny optimization.
 Internal  Forces:  Max     0.000001808 RMS     0.000000563
 Search for a saddle point.
 Step number   1 out of a maximum of  100 on scan point     1 out of    37
 All quantities printed in internal units (Hartrees-Bohrs-Radians)
 Swapping is turned off.
 Second derivative matrix not updated -- analytic derivatives used.
 ITU=  0
     Eigenvalues ---   -0.07744   0.00026   0.00637   0.02238   0.02599
     Eigenvalues ---    0.05051   0.05214   0.08099   0.08132   0.08489
     Eigenvalues ---    0.08535   0.10308   0.13043   0.15571   0.16659
     Eigenvalues ---    0.18158   0.19067   0.26030   0.32046   0.33514
     Eigenvalues ---    0.34488   0.35552   0.36044   0.36146   0.36263
     Eigenvalues ---    0.405501000.000001000.000001000.000001000.00000
     Eigenvalues --- 1000.000001000.000001000.00000
 Eigenvectors required to have negative eigenvalues:
                          R9        R6        R5        A12       A10
   1                    0.71455  -0.62490   0.15457  -0.14537  -0.10971
                          A8        A14       A9        A13       A11
   1                   -0.09551  -0.09432   0.08345   0.08201   0.08026
 RFO step:  Lambda0=1.794883686D-13 Lambda= 0.00000000D+00.
 Linear search not attempted -- option 19 set.
 Iteration  1 RMS(Cart)=  0.00004825 RMS(Int)=  0.00000000
 Iteration  2 RMS(Cart)=  0.00000000 RMS(Int)=  0.00000000
 Iteration  1 RMS(Cart)=  0.00000000 RMS(Int)=  0.00000000
 Variable       Old X    -DE/DX   Delta X   Delta X   Delta X     New X
                                 (Linear)    (Quad)   (Total)
    R1        2.06252   0.00000   0.00000   0.00000   0.00000   2.06252
    R2        2.05602   0.00000   0.00000   0.00000   0.00000   2.05602
    R3        2.05707  -0.00000   0.00000  -0.00000  -0.00000   2.05707
    R4        2.68333   0.00000   0.00000   0.00000   0.00000   2.68334
    R5        2.66322   0.00000   0.00000   0.00001   0.00001   2.66322
    R6        2.14688   0.00000   0.00000  -0.00000  -0.00000   2.14687
    R7        2.04450   0.00000   0.00000   0.00000   0.00000   2.04450
    R8        2.04558  -0.00000   0.00000  -0.00000  -0.00000   2.04558
    R9        2.63347  -0.00000   0.00000  -0.00000  -0.00000   2.63346
   R10        2.04393   0.00000   0.00000   0.00000   0.00000   2.04393
    A1        1.91734   0.00000   0.00000   0.00000   0.00000   1.91734
    A2        1.91707  -0.00000   0.00000  -0.00000  -0.00000   1.91707
    A3        1.93495  -0.00000   0.00000  -0.00000  -0.00000   1.93495
    A4        1.92464   0.00000   0.00000  -0.00000  -0.00000   1.92464
    A5        1.83595   0.00000   0.00000   0.00000   0.00000   1.83595
    A6        1.93261  -0.00000   0.00000  -0.00000  -0.00000   1.93261
    A7        1.87979  -0.00000   0.00000  -0.00000  -0.00000   1.87979
    A8        1.81945  -0.00000   0.00000  -0.00001  -0.00001   1.81944
    A9        2.01346   0.00000   0.00000   0.00000   0.00000   2.01347
   A10        1.78772   0.00000   0.00000   0.00001   0.00001   1.78773
   A11        2.01260  -0.00000   0.00000  -0.00000  -0.00000   2.01260
   A12        1.75124   0.00000   0.00000  -0.00001  -0.00001   1.75123
   A13        2.01777  -0.00000   0.00000  -0.00000  -0.00000   2.01777
   A14        1.82924  -0.00000   0.00000  -0.00000  -0.00000   1.82923
   A15        3.12165  -0.00000   0.00000  -0.00003  -0.00003   3.12162
   A16        3.17063   0.00000   0.00000   0.00004   0.00004   3.17067
    D1        1.14494  -0.00000   0.00000  -0.00001  -0.00001   1.14492
    D2       -3.06663  -0.00000   0.00000  -0.00001  -0.00001  -3.06664
    D3       -0.98754   0.00000   0.00000  -0.00001  -0.00001  -0.98756
    D4       -1.60613   0.00000   0.00000   0.00000   0.00000  -1.60613
    D5       -2.41280  -0.00000   0.00000  -0.00004  -0.00004  -2.41283
    D6       -0.33649   0.00000   0.00000  -0.00004  -0.00004  -0.33653
    D7        1.75652  -0.00000   0.00000  -0.00005  -0.00005   1.75647
         Item               Value     Threshold  Converged?
 Maximum Force            0.000002     0.000450     YES
 RMS     Force            0.000001     0.000300     YES
 Maximum Displacement     0.000102     0.001800     YES
 RMS     Displacement     0.000048     0.001200     YES
 Predicted change in Energy=-5.627446D-11
 Optimization completed.
    -- Stationary point found.
                           ----------------------------
                           !   Optimized Parameters   !
                           ! (Angstroms and Degrees)  !
 --------------------------                            --------------------------
 ! Name  Definition              Value          Derivative Info.                !
 --------------------------------------------------------------------------------
 ! R1    R(1,2)                  1.0914         -DE/DX =    0.0                 !
 ! R2    R(1,3)                  1.088          -DE/DX =    0.0                 !
 ! R3    R(1,4)                  1.0886         -DE/DX =    0.0                 !
 ! R4    R(1,5)                  1.42           -DE/DX =    0.0                 !
 ! R5    R(5,6)                  1.4093         -DE/DX =    0.0                 !
 ! R6    R(6,10)                 1.1361         -DE/DX =    0.0                 !
 ! R7    R(7,8)                  1.0819         -DE/DX =    0.0                 !
 ! R8    R(7,9)                  1.0825         -DE/DX =    0.0                 !
 ! R9    R(7,10)                 1.3936         -DE/DX =    0.0                 !
 ! R10   R(7,11)                 1.0816         -DE/DX =    0.0                 !
 ! A1    A(2,1,3)              109.8554         -DE/DX =    0.0                 !
 ! A2    A(2,1,4)              109.8401         -DE/DX =    0.0                 !
 ! A3    A(2,1,5)              110.8646         -DE/DX =    0.0                 !
 ! A4    A(3,1,4)              110.2739         -DE/DX =    0.0                 !
 ! A5    A(3,1,5)              105.1922         -DE/DX =    0.0                 !
 ! A6    A(4,1,5)              110.7301         -DE/DX =    0.0                 !
 ! A7    A(1,5,6)              107.7039         -DE/DX =    0.0                 !
 ! A8    A(5,6,10)             104.2467         -DE/DX =    0.0                 !
 ! A9    A(8,7,9)              115.3628         -DE/DX =    0.0                 !
 ! A10   A(8,7,10)             102.4288         -DE/DX =    0.0                 !
 ! A11   A(8,7,11)             115.3134         -DE/DX =    0.0                 !
 ! A12   A(9,7,10)             100.3386         -DE/DX =    0.0                 !
 ! A13   A(9,7,11)             115.6096         -DE/DX =    0.0                 !
 ! A14   A(10,7,11)            104.8075         -DE/DX =    0.0                 !
 ! A15   L(6,10,7,2,-1)        178.8576         -DE/DX =    0.0                 !
 ! A16   L(6,10,7,2,-2)        181.6637         -DE/DX =    0.0                 !
 ! D1    D(2,1,5,6)             65.6            -DE/DX =    0.0                 !
 ! D2    D(3,1,5,6)           -175.7049         -DE/DX =    0.0                 !
 ! D3    D(4,1,5,6)            -56.5821         -DE/DX =    0.0                 !
 ! D4    D(1,5,6,7)            -92.0243         -DE/DX =    0.0                 !
 ! D5    D(5,6,7,8)           -138.243          -DE/DX =    0.0                 !
 ! D6    D(5,6,7,9)            -19.2794         -DE/DX =    0.0                 !
 ! D7    D(5,6,7,11)           100.6415         -DE/DX =    0.0                 !
 --------------------------------------------------------------------------------
 Iteration  1 RMS(Cart)=  0.11906773 RMS(Int)=  0.00454496
 Iteration  2 RMS(Cart)=  0.00654909 RMS(Int)=  0.00004586
 Iteration  3 RMS(Cart)=  0.00002183 RMS(Int)=  0.00004391
 Iteration  4 RMS(Cart)=  0.00000000 RMS(Int)=  0.00004391
 Iteration  1 RMS(Cart)=  0.00000027 RMS(Int)=  0.00000000
 GradGradGradGradGradGradGradGradGradGradGradGradGradGradGradGradGradGrad

                          Input orientation:                          
 ---------------------------------------------------------------------
 Center     Atomic      Atomic             Coordinates (Angstroms)
 Number     Number       Type             X           Y           Z
 ---------------------------------------------------------------------
      1          6           0        1.484117    0.649029   -0.163783
      2          1           0        0.745008    1.431315   -0.345386
      3          1           0        2.270927    1.027537    0.485371
      4          1           0        1.904941    0.311673   -1.109322
      5          8           0        0.906913   -0.437246    0.545534
      6          8           0       -0.057111   -1.032511   -0.292614
      7          6           0       -2.084926    0.446284    0.020921
      8          1           0       -2.897530   -0.265496    0.080525
      9          1           0       -1.815321    0.921687    0.955296
     10          1           0       -0.977451   -0.378018   -0.168974
     11          1           0       -2.099641    1.093400   -0.845617
 ---------------------------------------------------------------------
                    Distance matrix (angstroms):
                    1          2          3          4          5
     1  C    0.000000
     2  H    1.091436   0.000000
     3  H    1.087998   1.783711   0.000000
     4  H    1.088553   1.783996   1.785904   0.000000
     5  O    1.419960   2.076408   2.002434   2.072556   0.000000
     6  O    2.284635   2.591643   3.204500   2.514655   1.409317
     7  C    3.579565   3.018773   4.418939   4.149049   3.163376
     8  H    4.482731   4.040873   5.343107   4.981224   3.836603
     9  H    3.494706   2.916638   4.114542   4.298268   3.070043
    10  H    2.667240   2.504331   3.599405   3.109358   2.016149
    11  H    3.675008   2.907996   4.569215   4.088681   3.649321
                    6          7          8          9         10
     6  O    0.000000
     7  C    2.529263   0.000000
     8  H    2.965725   1.081901   0.000000
     9  H    2.909891   1.082475   1.829154   0.000000
    10  H    1.136077   1.393570   1.939489   1.911869   0.000000
    11  H    2.999539   1.081602   1.827831   1.831286   1.970337
                   11
    11  H    0.000000
 Symmetry turned off by external request.
 Stoichiometry    C2H7O2(2)
 Framework group  C1[X(C2H7O2)]
 Deg. of freedom    27
 Full point group                 C1      NOp   1
 Rotational constants (GHZ):          12.0604740           3.9466888           3.3520430
 Standard basis: CC-pVTZ (5D, 7F)
   218 basis functions,   327 primitive gaussians,   245 cartesian basis functions
    18 alpha electrons       17 beta electrons
       nuclear repulsion energy       131.3604375883 Hartrees.
 NAtoms=   11 NActive=   11 NUniq=   11 SFac= 1.00D+00 NAtFMM=   60 NAOKFM=F Big=F
 Integral buffers will be    131072 words long.
 Raffenetti 2 integral format.
 Two-electron integral symmetry is turned off.
 Nuclear repulsion after empirical dispersion term =      131.3566427021 Hartrees.
 One-electron integrals computed using PRISM.
 NBasis=   218 RedAO= T EigKep=  1.74D-03  NBF=   218
 NBsUse=   218 1.00D-06 EigRej= -1.00D+00 NBFU=   218
 Initial guess from the checkpoint file:  "/localscratch/347858/Gau-8468.chk"
 B after Tr=     0.017520   -0.056371    0.011775
         Rot=    0.999992    0.002830    0.001139    0.002440 Ang=   0.45 deg.
 Initial guess <Sx>= 0.0000 <Sy>= 0.0000 <Sz>= 0.5000 <S**2>= 0.7681 S= 0.5090
 ExpMin= 1.03D-01 ExpMax= 1.53D+04 ExpMxC= 5.22D+02 IAcc=3 IRadAn=         5 AccDes= 0.00D+00
 Harris functional with IExCor=  419 and IRadAn=       5 diagonalized for initial guess.
 HarFok:  IExCor=  419 AccDes= 0.00D+00 IRadAn=         5 IDoV= 1 UseB2=F ITyADJ=14
 ICtDFT=  3500011 ScaDFX=  1.000000  1.000000  1.000000  1.000000
 FoFCou: FMM=F IPFlag=           0 FMFlag=      100000 FMFlg1=           0
         NFxFlg=           0 DoJE=T BraDBF=F KetDBF=T FulRan=T
         wScrn=  0.000000 ICntrl=       500 IOpCl=  0 I1Cent=   200000004 NGrid=           0
         NMat0=    1 NMatS0=      1 NMatT0=    0 NMatD0=    1 NMtDS0=    0 NMtDT0=    0
 Symmetry not used in FoFCou.
 Keep R1 and R2 ints in memory in canonical form, NReq=612885324.
 Requested convergence on RMS density matrix=1.00D-08 within 500 cycles.
 Requested convergence on MAX density matrix=1.00D-06.
 Requested convergence on             energy=1.00D-06.
 No special actions if energy rises.
 Integral accuracy reduced to 1.0D-05 until final iterations.
 Initial convergence to 1.0D-05 achieved.  Increase integral accuracy.
 SCF Done:  E(UB2PLYPD3) =  -230.320584644     A.U. after   15 cycles
            NFock= 15  Conv=0.54D-08     -V/T= 2.0042
 <Sx>= 0.0000 <Sy>= 0.0000 <Sz>= 0.5000 <S**2>= 0.7681 S= 0.5090
 <L.S>=  0.00000000000    
 Annihilation of the first spin contaminant:
 S**2 before annihilation     0.7681,   after     0.7501
 DoSCS=T DFT=T ScalE2(SS,OS)=  0.270000  0.270000
 ExpMin= 1.03D-01 ExpMax= 1.53D+04 ExpMxC= 5.22D+02 IAcc=3 IRadAn=         5 AccDes= 0.00D+00
 HarFok:  IExCor=  205 AccDes= 0.00D+00 IRadAn=         5 IDoV=-2 UseB2=F ITyADJ=14
 ICtDFT= 12500011 ScaDFX=  1.000000  1.000000  1.000000  1.000000
 Range of M.O.s used for correlation:     5   218
 NBasis=   218 NAE=    18 NBE=    17 NFC=     4 NFV=     0
 NROrb=    214 NOA=    14 NOB=    13 NVA=   200 NVB=   201
 DoSCS=T DFT=T ScalE2(SS,OS)=  0.270000  0.270000
 Fully direct method using O(ONN) memory.
 JobTyp=2 Pass  1:  I=   5 to  18 NPSUse= 40 ParTrn=T ParDer=T DoDerP=T.
 JobTyp=3 Pass  1:  I=   5 to  17 NPSUse= 40 ParTrn=T ParDer=T DoDerP=T.
 Spin components of T(2) and E(2):
     alpha-alpha T2 =       0.4443220946D-01 E2=     -0.3432144417D-01
     alpha-beta  T2 =       0.2732962904D+00 E2=     -0.2115777288D+00
     beta-beta   T2 =       0.4674574426D-01 E2=     -0.3212196852D-01
 (S**2,0)=  0.76814D+00           (S**2,1)=  0.74290D+00
 Scaling Projection term by:   0.270000
 E(PUHF)=      -0.23032666326D+03        E(PMP2)=      -0.23059911063D+03
 E2(B2PLYPD3) =    -0.2780211415D+00 E(B2PLYPD3) =    -0.23059860578585D+03
          IDoAtm=11111111111
          Differentiating once with respect to electric field.
                with respect to dipole field.
          Differentiating once with respect to nuclear coordinates.
 Keep R1 and R2 ints in memory in canonical form, NReq=612893468.
          There are     1 degrees of freedom in the 1st order CPHF.  IDoFFX=0 NUNeed=     1.
 LinEq1:  Iter=  0 NonCon=     1 RMS=1.23D-03 Max=6.84D-02 NDo=     1
 AX will form     1 AO Fock derivatives at one time.
 LinEq1:  Iter=  1 NonCon=     1 RMS=3.80D-04 Max=8.56D-03 NDo=     1
 LinEq1:  Iter=  2 NonCon=     1 RMS=2.07D-04 Max=7.83D-03 NDo=     1
 LinEq1:  Iter=  3 NonCon=     1 RMS=8.53D-05 Max=1.28D-03 NDo=     1
 LinEq1:  Iter=  4 NonCon=     1 RMS=4.56D-05 Max=7.92D-04 NDo=     1
 LinEq1:  Iter=  5 NonCon=     1 RMS=3.44D-05 Max=9.30D-04 NDo=     1
 LinEq1:  Iter=  6 NonCon=     1 RMS=1.93D-05 Max=6.16D-04 NDo=     1
 LinEq1:  Iter=  7 NonCon=     1 RMS=4.79D-06 Max=7.27D-05 NDo=     1
 LinEq1:  Iter=  8 NonCon=     1 RMS=1.50D-06 Max=2.65D-05 NDo=     1
 LinEq1:  Iter=  9 NonCon=     1 RMS=4.80D-07 Max=8.66D-06 NDo=     1
 LinEq1:  Iter= 10 NonCon=     1 RMS=1.54D-07 Max=2.17D-06 NDo=     1
 LinEq1:  Iter= 11 NonCon=     1 RMS=4.79D-08 Max=8.02D-07 NDo=     1
 LinEq1:  Iter= 12 NonCon=     1 RMS=1.78D-08 Max=5.72D-07 NDo=     1
 LinEq1:  Iter= 13 NonCon=     1 RMS=9.21D-09 Max=2.78D-07 NDo=     1
 LinEq1:  Iter= 14 NonCon=     1 RMS=3.63D-09 Max=1.20D-07 NDo=     1
 LinEq1:  Iter= 15 NonCon=     1 RMS=1.12D-09 Max=2.72D-08 NDo=     1
 LinEq1:  Iter= 16 NonCon=     1 RMS=2.93D-10 Max=4.56D-09 NDo=     1
 LinEq1:  Iter= 17 NonCon=     1 RMS=8.28D-11 Max=1.55D-09 NDo=     1
 LinEq1:  Iter= 18 NonCon=     0 RMS=2.00D-11 Max=2.59D-10 NDo=     1
 Linear equations converged to 1.000D-10 1.000D-09 after    18 iterations.
 End of Minotr F.D. properties file   721 does not exist.
 End of Minotr F.D. properties file   722 does not exist.
 End of Minotr F.D. properties file   788 does not exist.
 Calling FoFJK, ICntrl=  10002127 FMM=F ISym2X=0 I1Cent= 0 IOpClX= 1 NMat=1 NMatS=1 NMatT=0.
 -------------------------------------------------------------------
 Center     Atomic                   Forces (Hartrees/Bohr)
 Number     Number              X              Y              Z
 -------------------------------------------------------------------
      1        6           0.001738488   -0.001158972    0.000110572
      2        1          -0.000075040    0.000015511    0.000136373
      3        1          -0.000042416    0.000191454   -0.000062240
      4        1          -0.000094675   -0.000000047   -0.000153112
      5        8          -0.001549171    0.001167101   -0.000092451
      6        8           0.001262276    0.000230052   -0.000716079
      7        6           0.000189064   -0.000314891    0.000273460
      8        1           0.000014544    0.000073571    0.000078638
      9        1          -0.000382550    0.000113777    0.000129427
     10        1          -0.000983322   -0.000301786    0.000309983
     11        1          -0.000077197   -0.000015771   -0.000014571
 -------------------------------------------------------------------
 Cartesian Forces:  Max     0.001738488 RMS     0.000602134

 GradGradGradGradGradGradGradGradGradGradGradGradGradGradGradGradGradGrad
 Berny optimization.
 FormGI is forming the generalized inverse of G from B-inverse, IUseBI=4.
 Internal  Forces:  Max     0.003752287 RMS     0.000788645
 Search for a saddle point.
 Step number   1 out of a maximum of  100 on scan point     2 out of    37
 All quantities printed in internal units (Hartrees-Bohrs-Radians)
 Swapping is turned off.
 Second derivative matrix not updated -- first step.
 ITU=  0
     Eigenvalues ---   -0.07744   0.00026   0.00637   0.02238   0.02598
     Eigenvalues ---    0.05051   0.05213   0.08099   0.08132   0.08489
     Eigenvalues ---    0.08535   0.10308   0.13043   0.15571   0.16659
     Eigenvalues ---    0.18158   0.19067   0.26030   0.32046   0.33514
     Eigenvalues ---    0.34488   0.35552   0.36044   0.36146   0.36263
     Eigenvalues ---    0.405501000.000001000.000001000.000001000.00000
     Eigenvalues --- 1000.000001000.000001000.00000
 Eigenvectors required to have negative eigenvalues:
                          R9        R6        R5        A12       A10
   1                    0.71455  -0.62490   0.15457  -0.14538  -0.10974
                          A8        A14       A9        A13       A11
   1                   -0.09551  -0.09428   0.08334   0.08210   0.08028
 RFO step:  Lambda0=6.286321254D-06 Lambda=-7.93888036D-05.
 Linear search not attempted -- option 19 set.
 Iteration  1 RMS(Cart)=  0.03241718 RMS(Int)=  0.00048812
 Iteration  2 RMS(Cart)=  0.00062239 RMS(Int)=  0.00002089
 Iteration  3 RMS(Cart)=  0.00000019 RMS(Int)=  0.00002088
 Iteration  1 RMS(Cart)=  0.00000008 RMS(Int)=  0.00000000
 Variable       Old X    -DE/DX   Delta X   Delta X   Delta X     New X
                                 (Linear)    (Quad)   (Total)
    R1        2.06252   0.00004   0.00000   0.00043   0.00043   2.06294
    R2        2.05602  -0.00000   0.00000  -0.00016  -0.00016   2.05586
    R3        2.05707   0.00010   0.00000   0.00027   0.00027   2.05734
    R4        2.68334  -0.00012   0.00000  -0.00107  -0.00107   2.68227
    R5        2.66322   0.00003   0.00000  -0.00052  -0.00052   2.66270
    R6        2.14687   0.00084   0.00000  -0.00421  -0.00421   2.14266
    R7        2.04450  -0.00005   0.00000   0.00011   0.00011   2.04461
    R8        2.04558   0.00007   0.00000  -0.00002  -0.00002   2.04556
    R9        2.63346   0.00018   0.00000   0.01107   0.01107   2.64454
   R10        2.04393   0.00000   0.00000  -0.00022  -0.00022   2.04371
    A1        1.91734  -0.00014   0.00000  -0.00160  -0.00160   1.91574
    A2        1.91707   0.00000   0.00000  -0.00039  -0.00039   1.91668
    A3        1.93495  -0.00028   0.00000  -0.00060  -0.00060   1.93435
    A4        1.92464   0.00007   0.00000   0.00114   0.00114   1.92578
    A5        1.83595   0.00031   0.00000   0.00105   0.00105   1.83700
    A6        1.93260   0.00004   0.00000   0.00046   0.00046   1.93306
    A7        1.87979   0.00150   0.00000   0.00436   0.00436   1.88414
    A8        1.81944   0.00126   0.00000   0.00652   0.00652   1.82595
    A9        2.01357  -0.00033   0.00000  -0.00168  -0.00171   2.01187
   A10        1.78775  -0.00002   0.00000  -0.00611  -0.00613   1.78161
   A11        2.01256  -0.00008   0.00000  -0.00058  -0.00062   2.01194
   A12        1.75124   0.00065   0.00000   0.01352   0.01352   1.76477
   A13        2.01770  -0.00007   0.00000   0.00062   0.00066   2.01837
   A14        1.82920   0.00005   0.00000  -0.00496  -0.00496   1.82424
   A15        3.12161  -0.00031   0.00000  -0.01049  -0.01048   3.11113
   A16        3.17065  -0.00095   0.00000  -0.04229  -0.04229   3.12836
    D1        1.14492   0.00007   0.00000   0.01501   0.01501   1.15993
    D2       -3.06664  -0.00006   0.00000   0.01341   0.01341  -3.05323
    D3       -0.98756   0.00023   0.00000   0.01561   0.01561  -0.97194
    D4       -1.43159  -0.00375   0.00000   0.00000   0.00000  -1.43159
    D5       -2.41270  -0.00009   0.00000  -0.03686  -0.03685  -2.44955
    D6       -0.33669  -0.00007   0.00000  -0.02915  -0.02909  -0.36577
    D7        1.75650   0.00011   0.00000  -0.02524  -0.02531   1.73119
         Item               Value     Threshold  Converged?
 Maximum Force            0.001504     0.000450     NO 
 RMS     Force            0.000449     0.000300     NO 
 Maximum Displacement     0.109483     0.001800     NO 
 RMS     Displacement     0.032379     0.001200     NO 
 Predicted change in Energy=-3.678257D-05
 GradGradGradGradGradGradGradGradGradGradGradGradGradGradGradGradGradGrad

                          Input orientation:                          
 ---------------------------------------------------------------------
 Center     Atomic      Atomic             Coordinates (Angstroms)
 Number     Number       Type             X           Y           Z
 ---------------------------------------------------------------------
      1          6           0        1.498573    0.650127   -0.169420
      2          1           0        0.767241    1.444377   -0.330816
      3          1           0        2.302962    1.014310    0.466097
      4          1           0        1.894902    0.313401   -1.125870
      5          8           0        0.919619   -0.431703    0.544119
      6          8           0       -0.057092   -1.023321   -0.281365
      7          6           0       -2.099248    0.443978    0.022588
      8          1           0       -2.908782   -0.273343    0.049815
      9          1           0       -1.873257    0.921808    0.967224
     10          1           0       -0.981012   -0.382328   -0.136068
     11          1           0       -2.083981    1.090346   -0.844353
 ---------------------------------------------------------------------
                    Distance matrix (angstroms):
                    1          2          3          4          5
     1  C    0.000000
     2  H    1.091663   0.000000
     3  H    1.087912   1.782826   0.000000
     4  H    1.088696   1.784051   1.786658   0.000000
     5  O    1.419395   2.075670   2.002669   2.072491   0.000000
     6  O    2.287586   2.602211   3.206321   2.512030   1.409042
     7  C    3.608833   3.056542   4.461102   4.158033   3.186278
     8  H    4.508396   4.075363   5.384572   4.980149   3.863426
     9  H    3.568614   2.988346   4.207195   4.353185   3.132278
    10  H    2.686152   2.535974   3.619072   3.120036   2.019279
    11  H    3.672059   2.918651   4.579119   4.063792   3.642266
                    6          7          8          9         10
     6  O    0.000000
     7  C    2.532934   0.000000
     8  H    2.967201   1.081959   0.000000
     9  H    2.939550   1.082464   1.828205   0.000000
    10  H    1.133848   1.399430   1.939775   1.927206   0.000000
    11  H    2.982084   1.081486   1.827424   1.831562   1.971542
                   11
    11  H    0.000000
 Symmetry turned off by external request.
 Stoichiometry    C2H7O2(2)
 Framework group  C1[X(C2H7O2)]
 Deg. of freedom    27
 Full point group                 C1      NOp   1
 Rotational constants (GHZ):          12.1765503           3.8909119           3.3165999
 Standard basis: CC-pVTZ (5D, 7F)
   218 basis functions,   327 primitive gaussians,   245 cartesian basis functions
    18 alpha electrons       17 beta electrons
       nuclear repulsion energy       131.1224950053 Hartrees.
 NAtoms=   11 NActive=   11 NUniq=   11 SFac= 1.00D+00 NAtFMM=   60 NAOKFM=F Big=F
 Integral buffers will be    131072 words long.
 Raffenetti 2 integral format.
 Two-electron integral symmetry is turned off.
 Nuclear repulsion after empirical dispersion term =      131.1187196048 Hartrees.
 One-electron integrals computed using PRISM.
 NBasis=   218 RedAO= T EigKep=  1.75D-03  NBF=   218
 NBsUse=   218 1.00D-06 EigRej= -1.00D+00 NBFU=   218
 Initial guess from the checkpoint file:  "/localscratch/347858/Gau-8468.chk"
 B after Tr=     0.004780    0.005184    0.002468
         Rot=    0.999998    0.001791   -0.000706   -0.000434 Ang=   0.23 deg.
 Initial guess <Sx>= 0.0000 <Sy>= 0.0000 <Sz>= 0.5000 <S**2>= 0.7682 S= 0.5091
 ExpMin= 1.03D-01 ExpMax= 1.53D+04 ExpMxC= 5.22D+02 IAcc=3 IRadAn=         5 AccDes= 0.00D+00
 Harris functional with IExCor=  419 and IRadAn=       5 diagonalized for initial guess.
 HarFok:  IExCor=  419 AccDes= 0.00D+00 IRadAn=         5 IDoV= 1 UseB2=F ITyADJ=14
 ICtDFT=  3500011 ScaDFX=  1.000000  1.000000  1.000000  1.000000
 FoFCou: FMM=F IPFlag=           0 FMFlag=      100000 FMFlg1=           0
         NFxFlg=           0 DoJE=T BraDBF=F KetDBF=T FulRan=T
         wScrn=  0.000000 ICntrl=       500 IOpCl=  0 I1Cent=   200000004 NGrid=           0
         NMat0=    1 NMatS0=      1 NMatT0=    0 NMatD0=    1 NMtDS0=    0 NMtDT0=    0
 Symmetry not used in FoFCou.
 Keep R1 and R2 ints in memory in canonical form, NReq=612885324.
 Requested convergence on RMS density matrix=1.00D-08 within 500 cycles.
 Requested convergence on MAX density matrix=1.00D-06.
 Requested convergence on             energy=1.00D-06.
 No special actions if energy rises.
 Integral accuracy reduced to 1.0D-05 until final iterations.
 Initial convergence to 1.0D-05 achieved.  Increase integral accuracy.
 SCF Done:  E(UB2PLYPD3) =  -230.320760240     A.U. after   14 cycles
            NFock= 14  Conv=0.47D-08     -V/T= 2.0042
 <Sx>= 0.0000 <Sy>= 0.0000 <Sz>= 0.5000 <S**2>= 0.7681 S= 0.5090
 <L.S>=  0.00000000000    
 Annihilation of the first spin contaminant:
 S**2 before annihilation     0.7681,   after     0.7501
 DoSCS=T DFT=T ScalE2(SS,OS)=  0.270000  0.270000
 ExpMin= 1.03D-01 ExpMax= 1.53D+04 ExpMxC= 5.22D+02 IAcc=3 IRadAn=         5 AccDes= 0.00D+00
 HarFok:  IExCor=  205 AccDes= 0.00D+00 IRadAn=         5 IDoV=-2 UseB2=F ITyADJ=14
 ICtDFT= 12500011 ScaDFX=  1.000000  1.000000  1.000000  1.000000
 Range of M.O.s used for correlation:     5   218
 NBasis=   218 NAE=    18 NBE=    17 NFC=     4 NFV=     0
 NROrb=    214 NOA=    14 NOB=    13 NVA=   200 NVB=   201

 **** Warning!!: The largest alpha MO coefficient is  0.10484996D+02


 **** Warning!!: The largest beta MO coefficient is  0.10118020D+02

 DoSCS=T DFT=T ScalE2(SS,OS)=  0.270000  0.270000
 Fully direct method using O(ONN) memory.
 JobTyp=2 Pass  1:  I=   5 to  18 NPSUse= 40 ParTrn=T ParDer=T DoDerP=T.
 JobTyp=3 Pass  1:  I=   5 to  17 NPSUse= 40 ParTrn=T ParDer=T DoDerP=T.
 Spin components of T(2) and E(2):
     alpha-alpha T2 =       0.4442056471D-01 E2=     -0.3431103201D-01
     alpha-beta  T2 =       0.2730508627D+00 E2=     -0.2114926075D+00
     beta-beta   T2 =       0.4660153492D-01 E2=     -0.3207566574D-01
 (S**2,0)=  0.76805D+00           (S**2,1)=  0.74298D+00
 Scaling Projection term by:   0.270000
 E(PUHF)=      -0.23032678868D+03        E(PMP2)=      -0.23059914196D+03
 E2(B2PLYPD3) =    -0.2778793052D+00 E(B2PLYPD3) =    -0.23059863954526D+03
          IDoAtm=11111111111
          Differentiating once with respect to electric field.
                with respect to dipole field.
          Differentiating once with respect to nuclear coordinates.
 Keep R1 and R2 ints in memory in canonical form, NReq=612893468.
          There are     1 degrees of freedom in the 1st order CPHF.  IDoFFX=0 NUNeed=     1.
 LinEq1:  Iter=  0 NonCon=     1 RMS=1.23D-03 Max=6.95D-02 NDo=     1
 AX will form     1 AO Fock derivatives at one time.
 LinEq1:  Iter=  1 NonCon=     1 RMS=3.79D-04 Max=8.40D-03 NDo=     1
 LinEq1:  Iter=  2 NonCon=     1 RMS=2.06D-04 Max=7.70D-03 NDo=     1
 LinEq1:  Iter=  3 NonCon=     1 RMS=8.37D-05 Max=1.20D-03 NDo=     1
 LinEq1:  Iter=  4 NonCon=     1 RMS=4.38D-05 Max=7.40D-04 NDo=     1
 LinEq1:  Iter=  5 NonCon=     1 RMS=3.28D-05 Max=8.83D-04 NDo=     1
 LinEq1:  Iter=  6 NonCon=     1 RMS=1.84D-05 Max=6.08D-04 NDo=     1
 LinEq1:  Iter=  7 NonCon=     1 RMS=4.71D-06 Max=7.15D-05 NDo=     1
 LinEq1:  Iter=  8 NonCon=     1 RMS=1.50D-06 Max=2.60D-05 NDo=     1
 LinEq1:  Iter=  9 NonCon=     1 RMS=4.86D-07 Max=8.69D-06 NDo=     1
 LinEq1:  Iter= 10 NonCon=     1 RMS=1.55D-07 Max=2.19D-06 NDo=     1
 LinEq1:  Iter= 11 NonCon=     1 RMS=4.60D-08 Max=8.53D-07 NDo=     1
 LinEq1:  Iter= 12 NonCon=     1 RMS=1.46D-08 Max=4.97D-07 NDo=     1
 LinEq1:  Iter= 13 NonCon=     1 RMS=7.15D-09 Max=2.21D-07 NDo=     1
 LinEq1:  Iter= 14 NonCon=     1 RMS=3.21D-09 Max=1.17D-07 NDo=     1
 LinEq1:  Iter= 15 NonCon=     1 RMS=1.07D-09 Max=2.98D-08 NDo=     1
 LinEq1:  Iter= 16 NonCon=     1 RMS=2.86D-10 Max=5.16D-09 NDo=     1
 LinEq1:  Iter= 17 NonCon=     1 RMS=8.06D-11 Max=1.52D-09 NDo=     1
 LinEq1:  Iter= 18 NonCon=     0 RMS=1.95D-11 Max=2.52D-10 NDo=     1
 Linear equations converged to 1.000D-10 1.000D-09 after    18 iterations.
 End of Minotr F.D. properties file   721 does not exist.
 End of Minotr F.D. properties file   722 does not exist.
 End of Minotr F.D. properties file   788 does not exist.
 Calling FoFJK, ICntrl=  10002127 FMM=F ISym2X=0 I1Cent= 0 IOpClX= 1 NMat=1 NMatS=1 NMatT=0.
 -------------------------------------------------------------------
 Center     Atomic                   Forces (Hartrees/Bohr)
 Number     Number              X              Y              Z
 -------------------------------------------------------------------
      1        6           0.000905890   -0.000795720   -0.000494126
      2        1          -0.000023898    0.000002246    0.000010386
      3        1           0.000007556    0.000009220   -0.000000823
      4        1          -0.000000772   -0.000002397    0.000003259
      5        8          -0.001299123    0.000839847    0.000865153
      6        8           0.000605606    0.000347396   -0.000895108
      7        6          -0.000289473   -0.000373055    0.000567116
      8        1          -0.000000423   -0.000008591   -0.000009728
      9        1           0.000043899    0.000000664   -0.000011120
     10        1           0.000042704   -0.000018760   -0.000037733
     11        1           0.000008034   -0.000000850    0.000002725
 -------------------------------------------------------------------
 Cartesian Forces:  Max     0.001299123 RMS     0.000449899

 GradGradGradGradGradGradGradGradGradGradGradGradGradGradGradGradGradGrad
 Berny optimization.
 FormGI is forming the generalized inverse of G from B-inverse, IUseBI=4.
 Internal  Forces:  Max     0.003233169 RMS     0.000563427
 Search for a saddle point.
 Step number   2 out of a maximum of  100 on scan point     2 out of    37
 All quantities printed in internal units (Hartrees-Bohrs-Radians)
 Swapping is turned off.
 Update second derivatives using D2CorX and points    1    2
 ITU=  0  0
     Eigenvalues ---   -0.07756   0.00017   0.00628   0.02332   0.02614
     Eigenvalues ---    0.05050   0.05216   0.08099   0.08139   0.08489
     Eigenvalues ---    0.08535   0.10312   0.13043   0.15574   0.16665
     Eigenvalues ---    0.18158   0.19067   0.26029   0.32046   0.33515
     Eigenvalues ---    0.34488   0.35554   0.36044   0.36146   0.36263
     Eigenvalues ---    0.405561000.000001000.000001000.000001000.00000
     Eigenvalues --- 1000.000001000.000001000.00000
 Eigenvectors required to have negative eigenvalues:
                          R9        R6        R5        A12       A10
   1                    0.71471  -0.62480   0.15439  -0.14386  -0.11004
                          A8        A14       A9        A13       A11
   1                   -0.09539  -0.09516   0.08540   0.08225   0.07867
 RFO step:  Lambda0=2.897179199D-08 Lambda=-1.35846318D-06.
 Linear search not attempted -- option 19 set.
 Iteration  1 RMS(Cart)=  0.02190744 RMS(Int)=  0.00030990
 Iteration  2 RMS(Cart)=  0.00032916 RMS(Int)=  0.00000217
 Iteration  3 RMS(Cart)=  0.00000006 RMS(Int)=  0.00000217
 Iteration  1 RMS(Cart)=  0.00000000 RMS(Int)=  0.00000000
 Variable       Old X    -DE/DX   Delta X   Delta X   Delta X     New X
                                 (Linear)    (Quad)   (Total)
    R1        2.06294   0.00002   0.00000   0.00002   0.00002   2.06297
    R2        2.05586   0.00001   0.00000   0.00001   0.00001   2.05586
    R3        2.05734  -0.00000   0.00000  -0.00000  -0.00000   2.05733
    R4        2.68227   0.00001   0.00000   0.00005   0.00005   2.68231
    R5        2.66270  -0.00004   0.00000  -0.00007  -0.00007   2.66263
    R6        2.14266  -0.00001   0.00000   0.00030   0.00030   2.14296
    R7        2.04461   0.00001   0.00000  -0.00003  -0.00003   2.04458
    R8        2.04556  -0.00000   0.00000   0.00005   0.00005   2.04561
    R9        2.64454   0.00004   0.00000  -0.00024  -0.00024   2.64430
   R10        2.04371  -0.00000   0.00000  -0.00000  -0.00000   2.04371
    A1        1.91574   0.00000   0.00000   0.00005   0.00005   1.91579
    A2        1.91668   0.00001   0.00000   0.00001   0.00001   1.91668
    A3        1.93435  -0.00003   0.00000  -0.00011  -0.00011   1.93424
    A4        1.92578  -0.00000   0.00000   0.00001   0.00001   1.92579
    A5        1.83700   0.00002   0.00000   0.00006   0.00006   1.83705
    A6        1.93306  -0.00000   0.00000  -0.00001  -0.00001   1.93305
    A7        1.88414  -0.00003   0.00000  -0.00011  -0.00011   1.88404
    A8        1.82595  -0.00006   0.00000  -0.00006  -0.00006   1.82589
    A9        2.01187   0.00004   0.00000  -0.00020  -0.00020   2.01167
   A10        1.78161   0.00000   0.00000   0.00004   0.00005   1.78166
   A11        2.01194   0.00001   0.00000   0.00025   0.00025   2.01220
   A12        1.76477  -0.00006   0.00000  -0.00049  -0.00049   1.76428
   A13        2.01837   0.00000   0.00000   0.00022   0.00022   2.01858
   A14        1.82424  -0.00001   0.00000   0.00005   0.00005   1.82429
   A15        3.11113  -0.00002   0.00000  -0.00161  -0.00161   3.10952
   A16        3.12836   0.00008   0.00000   0.00180   0.00180   3.13016
    D1        1.15993  -0.00000   0.00000  -0.00064  -0.00064   1.15929
    D2       -3.05323  -0.00000   0.00000  -0.00061  -0.00061  -3.05384
    D3       -0.97194   0.00001   0.00000  -0.00057  -0.00057  -0.97251
    D4       -1.43159  -0.00323   0.00000   0.00000   0.00000  -1.43159
    D5       -2.44955   0.00001   0.00000   0.04235   0.04236  -2.40719
    D6       -0.36577   0.00002   0.00000   0.04172   0.04172  -0.32406
    D7        1.73119  -0.00000   0.00000   0.04135   0.04135   1.77254
         Item               Value     Threshold  Converged?
 Maximum Force            0.000080     0.000450     YES
 RMS     Force            0.000026     0.000300     YES
 Maximum Displacement     0.062345     0.001800     NO 
 RMS     Displacement     0.021915     0.001200     NO 
 Predicted change in Energy=-6.646506D-07
 GradGradGradGradGradGradGradGradGradGradGradGradGradGradGradGradGradGrad

                          Input orientation:                          
 ---------------------------------------------------------------------
 Center     Atomic      Atomic             Coordinates (Angstroms)
 Number     Number       Type             X           Y           Z
 ---------------------------------------------------------------------
      1          6           0        1.497997    0.649798   -0.162987
      2          1           0        0.766924    1.445601   -0.317858
      3          1           0        2.300599    1.007261    0.478583
      4          1           0        1.896971    0.323378   -1.121905
      5          8           0        0.917187   -0.439690    0.537317
      6          8           0       -0.057673   -1.021889   -0.296938
      7          6           0       -2.098441    0.444489    0.020612
      8          1           0       -2.904877   -0.274116    0.082806
[...]
 Alpha virt. eigenvalues --    6.24959   6.34488   6.37759   6.42080   6.63529
 Alpha virt. eigenvalues --    6.74530   6.75653   6.82496   6.94697   7.04544
 Alpha virt. eigenvalues --    7.06134   7.17565   7.40313   7.42055   7.58393
 Alpha virt. eigenvalues --    7.73417   9.88734  10.65837  13.27275  13.41403
  Beta  occ. eigenvalues --  -19.78529 -19.77132 -10.66126 -10.62742  -1.25766
  Beta  occ. eigenvalues --   -0.99672  -0.79108  -0.76750  -0.57803  -0.54675
  Beta  occ. eigenvalues --   -0.54278  -0.49309  -0.49112  -0.46630  -0.43343
  Beta  occ. eigenvalues --   -0.35717  -0.33951
  Beta virt. eigenvalues --   -0.05327   0.07663   0.10811   0.13464   0.14476
  Beta virt. eigenvalues --    0.15413   0.15706   0.16880   0.21007   0.28294
  Beta virt. eigenvalues --    0.28360   0.29554   0.31743   0.32843   0.37337
  Beta virt. eigenvalues --    0.44886   0.49471   0.49686   0.51621   0.52243
  Beta virt. eigenvalues --    0.53001   0.53793   0.54619   0.55353   0.55827
  Beta virt. eigenvalues --    0.58397   0.60441   0.66172   0.68238   0.71945
  Beta virt. eigenvalues --    0.75080   0.79509   0.84138   0.89544   0.90571
  Beta virt. eigenvalues --    0.91766   0.94302   0.95213   0.96280   1.02898
  Beta virt. eigenvalues --    1.03965   1.04701   1.06319   1.08291   1.12214
  Beta virt. eigenvalues --    1.12863   1.14431   1.16504   1.18385   1.21791
  Beta virt. eigenvalues --    1.25596   1.32752   1.37300   1.37870   1.38648
  Beta virt. eigenvalues --    1.39393   1.40073   1.43533   1.44535   1.49724
  Beta virt. eigenvalues --    1.52507   1.62238   1.67836   1.70279   1.78884
  Beta virt. eigenvalues --    1.86806   1.90655   1.97850   2.04173   2.10892
  Beta virt. eigenvalues --    2.15689   2.19772   2.26363   2.31430   2.33424
  Beta virt. eigenvalues --    2.35129   2.38776   2.43810   2.49549   2.53837
  Beta virt. eigenvalues --    2.56962   2.68442   2.72416   2.75420   2.83662
  Beta virt. eigenvalues --    2.87010   2.89258   2.91750   2.92250   2.93731
  Beta virt. eigenvalues --    2.94190   2.95537   2.97228   3.00996   3.04728
  Beta virt. eigenvalues --    3.11850   3.12470   3.14697   3.16096   3.18751
  Beta virt. eigenvalues --    3.19909   3.22083   3.22896   3.35151   3.39966
  Beta virt. eigenvalues --    3.40513   3.40987   3.43099   3.46112   3.49498
  Beta virt. eigenvalues --    3.50434   3.51614   3.53765   3.54574   3.55828
  Beta virt. eigenvalues --    3.56979   3.60040   3.61425   3.64778   3.79933
  Beta virt. eigenvalues --    3.81171   3.82483   3.84576   3.86609   3.87518
  Beta virt. eigenvalues --    3.91720   3.95821   3.96288   4.00596   4.02827
  Beta virt. eigenvalues --    4.05208   4.06790   4.08861   4.11432   4.17225
  Beta virt. eigenvalues --    4.18117   4.20077   4.21266   4.21822   4.25715
  Beta virt. eigenvalues --    4.35491   4.37645   4.42926   4.44947   4.51478
  Beta virt. eigenvalues --    4.55612   4.63245   4.68849   4.80305   4.81334
  Beta virt. eigenvalues --    4.89738   4.94500   4.96340   4.99247   4.99791
  Beta virt. eigenvalues --    5.00173   5.03259   5.06565   5.12356   5.14133
  Beta virt. eigenvalues --    5.22874   5.24610   5.25881   5.30108   5.30779
  Beta virt. eigenvalues --    5.35042   5.36470   5.39469   5.40762   5.47011
  Beta virt. eigenvalues --    5.59858   5.68515   5.72931   5.76195   5.82309
  Beta virt. eigenvalues --    5.86780   5.89366   5.92721   5.96340   6.05456
  Beta virt. eigenvalues --    6.09197   6.25254   6.36041   6.38986   6.43537
  Beta virt. eigenvalues --    6.64510   6.76696   6.77540   6.83757   6.96324
  Beta virt. eigenvalues --    7.05130   7.07508   7.19620   7.41975   7.42720
  Beta virt. eigenvalues --    7.60277   7.73983   9.89441  10.66905  13.28192
  Beta virt. eigenvalues --   13.41646
          Condensed to atoms (all electrons):
               1          2          3          4          5          6
     1  C    4.580043   0.392487   0.395362   0.409305   0.311524  -0.044848
     2  H    0.392487   0.688272  -0.033647  -0.062706  -0.048570  -0.002591
     3  H    0.395362  -0.033647   0.594649  -0.030556  -0.026413   0.006989
     4  H    0.409305  -0.062706  -0.030556   0.638306  -0.042982   0.003841
     5  O    0.311524  -0.048570  -0.026413  -0.042982   7.945205   0.071833
     6  O   -0.044848  -0.002591   0.006989   0.003841   0.071833   8.044677
     7  C   -0.002875   0.000426   0.000265  -0.000322   0.001853  -0.074614
     8  H    0.000082  -0.000142  -0.000001   0.000011   0.000388   0.000647
     9  H    0.000037  -0.001520   0.000010   0.000288   0.005034  -0.002259
    10  H    0.002482   0.004801  -0.000793   0.000437  -0.028833   0.219669
    11  H   -0.000018  -0.000527  -0.000034   0.000029   0.000206   0.000028
               7          8          9         10         11
     1  C   -0.002875   0.000082   0.000037   0.002482  -0.000018
     2  H    0.000426  -0.000142  -0.001520   0.004801  -0.000527
     3  H    0.000265  -0.000001   0.000010  -0.000793  -0.000034
     4  H   -0.000322   0.000011   0.000288   0.000437   0.000029
     5  O    0.001853   0.000388   0.005034  -0.028833   0.000206
     6  O   -0.074614   0.000647  -0.002259   0.219669   0.000028
     7  C    5.085977   0.397397   0.389832   0.187331   0.392387
     8  H    0.397397   0.528940  -0.022641  -0.006928  -0.025827
     9  H    0.389832  -0.022641   0.539870  -0.005830  -0.028823
    10  H    0.187331  -0.006928  -0.005830   0.411229  -0.003996
    11  H    0.392387  -0.025827  -0.028823  -0.003996   0.549467
          Atomic-Atomic Spin Densities.
               1          2          3          4          5          6
     1  C   -0.004740   0.003491   0.000638  -0.002807   0.000927  -0.002503
     2  H    0.003491   0.002390  -0.000751  -0.001425  -0.000837   0.003609
     3  H    0.000638  -0.000751  -0.001753   0.001101   0.000017  -0.000196
     4  H   -0.002807  -0.001425   0.001101   0.004241  -0.000735  -0.000340
     5  O    0.000927  -0.000837   0.000017  -0.000735   0.044017  -0.037935
     6  O   -0.002503   0.003609  -0.000196  -0.000340  -0.037935   0.536604
     7  C    0.001132  -0.004327   0.000117   0.001152   0.011489  -0.086001
     8  H   -0.000037   0.000110  -0.000001  -0.000020  -0.000247   0.001963
     9  H   -0.000241   0.000507  -0.000015  -0.000071  -0.001008   0.001916
    10  H    0.001367  -0.002966   0.000050   0.001242   0.008203  -0.032786
    11  H   -0.000081   0.000576  -0.000004  -0.000094  -0.000438   0.002538
               7          8          9         10         11
     1  C    0.001132  -0.000037  -0.000241   0.001367  -0.000081
     2  H   -0.004327   0.000110   0.000507  -0.002966   0.000576
     3  H    0.000117  -0.000001  -0.000015   0.000050  -0.000004
     4  H    0.001152  -0.000020  -0.000071   0.001242  -0.000094
     5  O    0.011489  -0.000247  -0.001008   0.008203  -0.000438
     6  O   -0.086001   0.001963   0.001916  -0.032786   0.002538
     7  C    0.746169   0.001515   0.003416   0.045329   0.000682
     8  H    0.001515  -0.025111   0.001699   0.002212   0.002642
     9  H    0.003416   0.001699  -0.027991   0.004162   0.002099
    10  H    0.045329   0.002212   0.004162  -0.112132   0.001393
    11  H    0.000682   0.002642   0.002099   0.001393  -0.024552
 Mulliken charges and spin densities:
               1          2
     1  C   -0.043579  -0.002853
     2  H    0.063717   0.000376
     3  H    0.094170  -0.000798
     4  H    0.084349   0.002245
     5  O   -0.189246   0.023452
     6  O   -0.223372   0.386868
     7  C   -0.377657   0.720672
     8  H    0.128075  -0.015274
     9  H    0.126002  -0.015525
    10  H    0.220431  -0.083926
    11  H    0.117109  -0.015239
 Sum of Mulliken charges =  -0.00000   1.00000
 Mulliken charges and spin densities with hydrogens summed into heavy atoms:
               1          2
     1  C    0.198656  -0.001030
     5  O   -0.189246   0.023452
     6  O   -0.002941   0.302943
     7  C   -0.006469   0.674635
 Electronic spatial extent (au):  <R**2>=            419.3940
 Charge=             -0.0000 electrons
 Dipole moment (field-independent basis, Debye):
    X=             -0.3740    Y=              2.2409    Z=             -0.8017  Tot=              2.4092
 Quadrupole moment (field-independent basis, Debye-Ang):
   XX=            -22.1219   YY=            -27.0064   ZZ=            -25.7420
   XY=              1.2400   XZ=              2.4021   YZ=              1.1598
 Traceless Quadrupole moment (field-independent basis, Debye-Ang):
   XX=              2.8349   YY=             -2.0497   ZZ=             -0.7852
   XY=              1.2400   XZ=              2.4021   YZ=              1.1598
 Octapole moment (field-independent basis, Debye-Ang**2):
  XXX=              8.5609  YYY=             -2.7025  ZZZ=             -8.0767  XYY=              2.9242
  XXY=             -1.9782  XXZ=             -2.0579  XZZ=              2.7175  YZZ=              0.8974
  YYZ=             -2.4903  XYZ=              0.1852
 Hexadecapole moment (field-independent basis, Debye-Ang**3):
 XXXX=           -285.4934 YYYY=           -103.2432 ZZZZ=           -152.6560 XXXY=              2.2600
 XXXZ=            -74.5814 YYYX=             -2.3119 YYYZ=             -2.8727 ZZZX=            -72.4687
 ZZZY=              0.8561 XXYY=            -65.0441 XXZZ=            -70.9931 YYZZ=            -40.4664
 XXYZ=              4.7708 YYXZ=            -24.6283 ZZXY=              2.5084
 N-N= 1.307702277726D+02 E-N=-8.026087750502D+02  KE= 2.293470473242D+02
                          Isotropic Fermi Contact Couplings
        Atom                 a.u.       MegaHertz       Gauss      10(-4) cm-1
     1  C(13)             -0.00330      -3.71044      -1.32398      -1.23767
     2  H(1)               0.00234      10.45182       3.72947       3.48635
     3  H(1)              -0.00007      -0.31594      -0.11273      -0.10538
     4  H(1)               0.00051       2.26522       0.80829       0.75560
     5  O(17)              0.01403      -8.50748      -3.03568      -2.83779
     6  O(17)              0.03048     -18.47889      -6.59373      -6.16389
     7  C(13)              0.10126     113.83453      40.61899      37.97111
     8  H(1)              -0.00572     -25.57836      -9.12699      -8.53202
     9  H(1)              -0.00578     -25.81839      -9.21264      -8.61209
    10  H(1)              -0.02802    -125.23500     -44.68696     -41.77390
    11  H(1)              -0.00591     -26.42658      -9.42966      -8.81496
 --------------------------------------------------------
       Center         ----  Spin Dipole Couplings  ----
                      3XX-RR        3YY-RR        3ZZ-RR
 --------------------------------------------------------
     1   Atom        0.000766      0.001158     -0.001924
     2   Atom        0.000759      0.004092     -0.004851
     3   Atom        0.000420      0.000066     -0.000486
     4   Atom        0.005898     -0.002061     -0.003837
     5   Atom        0.133490     -0.009658     -0.123832
     6   Atom        0.568013      0.184233     -0.752245
     7   Atom        0.369854     -0.075218     -0.294635
     8   Atom        0.010135      0.022741     -0.032876
     9   Atom       -0.010849     -0.023766      0.034615
    10   Atom        0.102812     -0.031640     -0.071172
    11   Atom        0.003803     -0.000437     -0.003366
 --------------------------------------------------------
                        XY            XZ            YZ
 --------------------------------------------------------
     1   Atom        0.006261      0.004857      0.001310
     2   Atom        0.005396      0.002791      0.001268
     3   Atom        0.002897      0.003344      0.002875
     4   Atom        0.004788      0.002082      0.000784
     5   Atom       -0.213289      0.178418     -0.153897
     6   Atom       -1.229907      0.391873     -0.332801
     7   Atom       -0.488826      0.268258     -0.172336
     8   Atom        0.018746      0.030459      0.019987
     9   Atom       -0.029960     -0.008468      0.024256
    10   Atom       -0.146520      0.110025     -0.068606
    11   Atom        0.006168     -0.017875     -0.046439
 --------------------------------------------------------


 ---------------------------------------------------------------------------------
              Anisotropic Spin Dipole Couplings in Principal Axis System
 ---------------------------------------------------------------------------------

       Atom             a.u.   MegaHertz   Gauss  10(-4) cm-1        Axes

              Baa    -0.0070    -0.945    -0.337    -0.315  0.7029 -0.4484 -0.5521
     1 C(13)  Bbb    -0.0020    -0.264    -0.094    -0.088  0.1686 -0.6491  0.7418
              Bcc     0.0090     1.209     0.431     0.403  0.6910  0.6145  0.3806
 
              Baa    -0.0061    -3.268    -1.166    -1.090 -0.4613  0.1348  0.8770
     2 H(1)   Bbb    -0.0025    -1.328    -0.474    -0.443  0.6520 -0.6189  0.4380
              Bcc     0.0086     4.595     1.640     1.533  0.6018  0.7738  0.1976
 
              Baa    -0.0035    -1.851    -0.660    -0.617 -0.5318 -0.2277  0.8157
     3 H(1)   Bbb    -0.0026    -1.402    -0.500    -0.468 -0.5836  0.7965 -0.1581
              Bcc     0.0061     3.253     1.161     1.085  0.6137  0.5602  0.5564
 
              Baa    -0.0044    -2.372    -0.846    -0.791 -0.4289  0.6574  0.6196
     4 H(1)   Bbb    -0.0041    -2.185    -0.780    -0.729  0.1417 -0.6284  0.7648
              Bcc     0.0085     4.557     1.626     1.520  0.8922  0.4159  0.1764
 
              Baa    -0.2353    17.026     6.075     5.679 -0.1739  0.4374  0.8823
     5 O(17)  Bbb    -0.1582    11.450     4.086     3.819  0.6609  0.7160 -0.2247
              Bcc     0.3935   -28.475   -10.161    -9.498  0.7300 -0.5441  0.4136
 
              Baa    -0.8691    62.884    22.439    20.976  0.6677  0.7205 -0.1871
     6 O(17)  Bbb    -0.8584    62.117    22.165    20.720 -0.0272  0.2747  0.9611
              Bcc     1.7275  -125.001   -44.603   -41.696  0.7439 -0.6367  0.2030
 
              Baa    -0.3899   -52.318   -18.668   -17.451  0.5915  0.7171 -0.3686
     7 C(13)  Bbb    -0.3892   -52.230   -18.637   -17.422 -0.0129  0.4656  0.8849
              Bcc     0.7791   104.547    37.305    34.873  0.8062 -0.5187  0.2847
 
              Baa    -0.0500   -26.655    -9.511    -8.891 -0.4122 -0.1412  0.9001
     8 H(1)   Bbb    -0.0007    -0.349    -0.125    -0.116 -0.6755  0.7103 -0.1979
              Bcc     0.0506    27.005     9.636     9.008  0.6114  0.6896  0.3881
 
              Baa    -0.0503   -26.852    -9.582    -8.957  0.5718  0.8021 -0.1721
     9 H(1)   Bbb     0.0007     0.374     0.133     0.125  0.7537 -0.4308  0.4963
              Bcc     0.0496    26.478     9.448     8.832 -0.3240  0.4135  0.8509
 
              Baa    -0.1265   -67.470   -24.075   -22.506  0.6240  0.6436 -0.4432
    10 H(1)   Bbb    -0.1228   -65.520   -23.379   -21.855 -0.0202  0.5803  0.8142
              Bcc     0.2493   132.990    47.454    44.361  0.7812 -0.4991  0.3751
 
              Baa    -0.0498   -26.574    -9.482    -8.864  0.1665  0.6645  0.7285
    11 H(1)   Bbb    -0.0009    -0.488    -0.174    -0.163  0.9245 -0.3621  0.1191
              Bcc     0.0507    27.063     9.657     9.027 -0.3429 -0.6537  0.6746
 

 ---------------------------------------------------------------------------------

 1\1\GINC-N21\Scan\UB2PLYPD3-FC\CC-pVTZ\C2H7O2(2)\ROOT\13-Jun-2019\0\\#
  opt=(calcfc,ts,noeigentest,maxcyc=500,modredundant) uB2PLYPD3/cc-pvtz
  scf=maxcyc=500 nosymm\\Title Card Required\\0,2\C,1.3097894188,0.6931
 513131,0.8363288756\H,0.895130418,1.4862616416,0.211612138\H,1.5478746
 9,1.0859703089,1.8226088496\H,2.2027238508,0.2827927804,0.3681206271\O
 ,0.3479607702,-0.3263209716,1.0640554406\O,0.0742613854,-0.9415842173,
 -0.1739728316\C,-1.9044323731,0.3715604612,-1.0443679345\H,-2.54529751
 55,-0.397094161,-1.455432954\H,-2.246292476,0.8134167058,-0.1171963661
 \H,-0.8129526129,-0.362368573,-0.5838977914\H,-1.4888395558,1.06186871
 2,-1.7659080533\\Version=ES64L-G16RevB.01\HF=-230.3211436,-230.3207538
 ,-230.3197132,-230.3180272,-230.3157938,-230.3131729,-230.3103374,-230
 .3075421,-230.305232,-230.3040987,-230.3045887,-230.3065129,-230.30918
 04,-230.3120395,-230.3147704,-230.3171786,-230.3191042,-230.3204132,-2
 30.3210599,-230.3210998,-230.3206335,-230.3197447,-230.3185273,-230.31
 71061,-230.3156445,-230.3143551,-230.3134847,-230.3131614,-230.3132907
 ,-230.3139409,-230.3150869,-230.3165067,-230.3179675,-230.3192855,-230
 .3203202,-230.3209675,-230.321143\MP2=-230.5989163,-230.59864,-230.597
 7509,-230.5962324,-230.5941713,-230.5916921,-230.5889321,-230.5860952,
 -230.5835686,-230.5821438,-230.5827942,-230.5850026,-230.5877768,-230.
 5905994,-230.5932108,-230.5954568,-230.5972091,-230.5983571,-230.59887
 28,-230.5988278,-230.5983182,-230.5974182,-230.5961993,-230.59475,-230
 .5931865,-230.5916705,-230.5904398,-230.5898247,-230.5900964,-230.5911
 21,-230.5925555,-230.5941227,-230.5956343,-230.5969584,-230.5979968,-2
 30.5986728,-230.5989161\PUHF=-230.3272008,-230.326788,-230.325753,-230
 .3241086,-230.3219605,-230.3194582,-230.3167658,-230.3141239,-230.3119
 502,-230.3108806,-230.3113449,-230.3131557,-230.315671,-230.3183802,-2
 30.3209809,-230.3232904,-230.3251559,-230.3264456,-230.3271046,-230.32
 71834,-230.3267841,-230.3259969,-230.3249171,-230.3236616,-230.3223854
 ,-230.3212613,-230.3204895,-230.320188,-230.3203115,-230.3208976,-230.
 3219001,-230.3231383,-230.3244217,-230.3255883,-230.3265075,-230.32707
 44,-230.3272002\PMP2-0=-230.5994207,-230.5991429,-230.5982561,-230.596
 7445,-230.5946945,-230.5922287,-230.5894817,-230.5866533,-230.5841251,
 -230.5826894,-230.5833465,-230.5855617,-230.5883306,-230.5911414,-230.
 5937392,-230.595973,-230.5977165,-230.5988604,-230.5993762,-230.599334
 5,-230.5988312,-230.5979404,-230.5967342,-230.5953004,-230.5937567,-23
 0.5922624,-230.5910522,-230.5904487,-230.5907152,-230.5917217,-230.593
 1343,-230.5946809,-230.5961751,-230.5974852,-230.5985132,-230.5991817,
 -230.5994205\S2=0.768099,0.768071,0.768157,0.768386,0.76875,0.769177,0
 .769582,0.769836,0.769769,0.769428,0.769634,0.769861,0.769712,0.769349
 ,0.768918,0.768522,0.768231,0.768089,0.768076,0.768158,0.768317,0.7685
 56,0.768886,0.769267,0.769703,0.770093,0.770329,0.770387,0.770372,0.77
 0211,0.769872,0.769449,0.769034,0.768678,0.768404,0.768214,0.768099\S2
 -1=0.742948,0.742968,0.742975,0.742961,0.742911,0.742824,0.74269,0.742
 497,0.742242,0.742039,0.742139,0.742398,0.742619,0.742776,0.742881,0.7
 42945,0.742973,0.742973,0.742958,0.742929,0.74288,0.742803,0.7427,0.74
 2588,0.742506,0.742521,0.742685,0.742868,0.742775,0.74257,0.742496,0.7
 42547,0.742653,0.742765,0.742853,0.742912,0.742948\S2A=0.750142,0.7501
 42,0.750143,0.750145,0.750149,0.750153,0.750156,0.750154,0.750144,0.75
 0132,0.750139,0.750151,0.750156,0.750155,0.750151,0.750147,0.750143,0.
 750142,0.750142,0.750142,0.750144,0.750147,0.750151,0.750156,0.750164,
 0.750175,0.750187,0.750194,0.750191,0.750179,0.750168,0.750159,0.75015
 3,0.750148,0.750145,0.750143,0.750142\RMSD=3.551e-09,3.753e-09,3.443e-
 09,7.177e-09,5.515e-09,5.842e-09,2.186e-09,9.209e-09,6.530e-09,5.739e-
 09,2.987e-09,5.519e-09,8.130e-09,8.086e-09,5.471e-09,5.052e-09,7.688e-
 09,6.797e-09,4.005e-09,7.302e-09,7.429e-09,8.108e-09,3.622e-09,5.181e-
 09,9.071e-09,9.066e-09,6.938e-09,4.274e-09,9.839e-09,9.467e-09,7.155e-
 09,3.037e-09,3.803e-09,5.020e-09,4.276e-09,5.782e-09,8.685e-09\PG=C01 
 [X(C2H7O2)]\\@


 Once you get people laughing, they're
 listening and you can tell them almost anything.
                                 -- Herb Gardner
 Job cpu time:       6 days 14 hours 55 minutes  1.0 seconds.
 Elapsed time:       0 days  6 hours  6 minutes  3.2 seconds.
 File lengths (MBytes):  RWF=  15745 Int=      0 D2E=      0 Chk=     10 Scr=      1
 Normal termination of Gaussian 16 at Thu Jun 13 03:21:56 2019.
