 Entering Gaussian System, Link 0=g16
 Initial command:
 /ichec/packages/gaussian/16b01/l1.exe "/localscratch/353444/Gau-66347.inp" -scrdir="/localscratch/353444/"
 Entering Link 1 = /ichec/packages/gaussian/16b01/l1.exe PID=     67126.
  
 Copyright (c) 1988-2017, Gaussian, Inc.  All Rights Reserved.
  
 This is part of the Gaussian(R) 16 program.  It is based on
 the Gaussian(R) 09 system (copyright 2009, Gaussian, Inc.),
 the Gaussian(R) 03 system (copyright 2003, Gaussian, Inc.),
 the Gaussian(R) 98 system (copyright 1998, Gaussian, Inc.),
 the Gaussian(R) 94 system (copyright 1995, Gaussian, Inc.),
 the Gaussian 92(TM) system (copyright 1992, Gaussian, Inc.),
 the Gaussian 90(TM) system (copyright 1990, Gaussian, Inc.),
 the Gaussian 88(TM) system (copyright 1988, Gaussian, Inc.),
 the Gaussian 86(TM) system (copyright 1986, Carnegie Mellon
 University), and the Gaussian 82(TM) system (copyright 1983,
 Carnegie Mellon University). Gaussian is a federally registered
 trademark of Gaussian, Inc.
  
 This software contains proprietary and confidential information,
 including trade secrets, belonging to Gaussian, Inc.
  
 This software is provided under written license and may be
 used, copied, transmitted, or stored only in accord with that
 written license.
  
 The following legend is applicable only to US Government
 contracts under FAR:
  
                    RESTRICTED RIGHTS LEGEND
  
 Use, reproduction and disclosure by the US Government is
 subject to restrictions as set forth in subparagraphs (a)
 and (c) of the Commercial Computer Software - Restricted
 Rights clause in FAR 52.227-19.
  
 Gaussian, Inc.
 340 Quinnipiac St., Bldg. 40, Wallingford CT 06492
  
  
 ---------------------------------------------------------------
 Warning -- This program may not be used in any manner that
 competes with the business of Gaussian, Inc. or will provide
 assistance to any competitor of Gaussian, Inc.  The licensee
 of this program is prohibited from giving any competitor of
 Gaussian, Inc. access to this program.  By using this program,
 the user acknowledges that Gaussian, Inc. is engaged in the
 business of creating and licensing software in the field of
 computational chemistry and represents and warrants to the
 licensee that it is not a competitor of Gaussian, Inc. and that
 it will not use this program in any manner prohibited above.
 ---------------------------------------------------------------
  

 Cite this work as:
 Gaussian 16, Revision B.01,
 M. J. Frisch, G. W. Trucks, H. B. Schlegel, G. E. Scuseria, 
 M. A. Robb, J. R. Cheeseman, G. Scalmani, V. Barone, 
 G. A. Petersson, H. Nakatsuji, X. Li, M. Caricato, A. V. Marenich, 
 J. Bloino, B. G. Janesko, R. Gomperts, B. Mennucci, H. P. Hratchian, 
 J. V. Ortiz, A. F. Izmaylov, J. L. Sonnenberg, D. Williams-Young, 
 F. Ding, F. Lipparini, F. Egidi, J. Goings, B. Peng, A. Petrone, 
 T. Henderson, D. Ranasinghe, V. G. Zakrzewski, J. Gao, N. Rega, 
 G. Zheng, W. Liang, M. Hada, M. Ehara, K. Toyota, R. Fukuda, 
 J. Hasegawa, M. Ishida, T. Nakajima, Y. Honda, O. Kitao, H. Nakai, 
 T. Vreven, K. Throssell, J. A. Montgomery, Jr., J. E. Peralta, 
 F. Ogliaro, M. J. Bearpark, J. J. Heyd, E. N. Brothers, K. N. Kudin, 
 V. N. Staroverov, T. A. Keith, R. Kobayashi, J. Normand, 
 K. Raghavachari, A. P. Rendell, J. C. Burant, S. S. Iyengar, 
 J. Tomasi, M. Cossi, J. M. Millam, M. Klene, C. Adamo, R. Cammi, 
 J. W. Ochterski, R. L. Martin, K. Morokuma, O. Farkas, 
 J. B. Foresman, and D. J. Fox, Gaussian, Inc., Wallingford CT, 2016.
 
 ******************************************
 Gaussian 16:  ES64L-G16RevB.01 20-Dec-2017
                25-Jun-2019 
 ******************************************
 %mem=80GB
 %nproc=40
 Will use up to   40 processors via shared memory.
 ----------------------------------------------------------------------
 # opt=(calcfc,ts,noeigentest,maxcyc=500) freq=noraman uB2PLYPD3/cc-pvt
 z
 ----------------------------------------------------------------------
 1/5=1,6=500,10=4,11=1,18=20,38=1/1,3;
 2/9=110,12=2,17=6,18=5,40=1/2;
 3/5=16,6=1,11=2,25=1,30=1,71=2,74=-60,116=2,140=1/1,2,3;
 4//1;
 5/5=2,38=5/2;
 8/6=3,8=1,10=1,19=11,30=-1/1;
 9/15=3,16=-3/6;
 11/6=1,8=1,15=11,17=12,24=-1,27=1,28=-2,29=300,32=6,42=3/1,2,10;
 10/6=2,21=1/2;
 8/6=4,8=1,10=1,19=11,30=-1/11,4;
 10/5=1,20=4/2;
 11/12=2,14=11,16=1,17=2,28=-2,42=3,76=2/2,10,12;
 6/7=2,8=2,9=2,10=2/1;
 7/10=1,12=2,25=1,44=2/1,2,3,16;
 1/5=1,6=500,10=4,11=1,18=20/3(2);
 2/9=110/2;
 99//99;
 2/9=110/2;
 3/5=16,6=1,11=2,25=1,30=1,71=1,74=-60,116=2/1,2,3;
 4/5=5,16=3,69=1/1;
 5/5=2,38=5/2;
 8/6=4,10=1/1;
 9/15=2,16=-3/6;
 10/5=1/2;
 7/12=2/1,2,3,16;
 1/5=1,6=500,11=1,18=20/3(-8);
 2/9=110/2;
 6/7=2,8=2,9=2,10=2/1;
 99/9=10/99;
 -------------------
 Title Card Required
 -------------------
 Symbolic Z-matrix:
 Charge =  0 Multiplicity = 2
 C                     1.63068  -0.4722    1.05801 
 H                     0.94048  -1.24824   1.38383 
 H                     2.63042  -0.91517   1.00251 
 C                     1.2358    0.10578  -0.2721 
 H                     1.1012   -0.63726  -1.05625 
 C                    -2.23667  -1.0162    0.65552 
 H                    -1.55654  -1.63679   0.0692 
 H                    -2.61985  -1.58389   1.50113 
 H                    -3.05743  -0.67478   0.02711 
 O                    -1.54944   0.08827   1.22505 
 O                    -1.11368   0.91243   0.16974 
 H                    -0.02068   0.5193   -0.07627 
 H                     1.65249   0.29962   1.82657 
 C                     1.96471   1.34227  -0.72232 
 H                     1.55047   1.74169  -1.64632 
 H                     1.91829   2.12026   0.03912 
 H                     3.02171   1.12066  -0.90212 
 
 Add virtual bond connecting atoms H12        and O11        Dist= 2.24D+00.
 Add virtual bond connecting atoms H12        and C4         Dist= 2.53D+00.

 GradGradGradGradGradGradGradGradGradGradGradGradGradGradGradGradGradGrad
 Berny optimization.
 Initialization pass.
                           ----------------------------
                           !    Initial Parameters    !
                           ! (Angstroms and Degrees)  !
 --------------------------                            --------------------------
 ! Name  Definition              Value          Derivative Info.                !
 --------------------------------------------------------------------------------
 ! R1    R(1,2)                  1.0885         calculate D2E/DX2 analytically  !
 ! R2    R(1,3)                  1.0949         calculate D2E/DX2 analytically  !
 ! R3    R(1,4)                  1.5031         calculate D2E/DX2 analytically  !
 ! R4    R(1,13)                 1.0894         calculate D2E/DX2 analytically  !
 ! R5    R(4,5)                  1.0886         calculate D2E/DX2 analytically  !
 ! R6    R(4,12)                 1.3372         calculate D2E/DX2 analytically  !
 ! R7    R(4,14)                 1.5043         calculate D2E/DX2 analytically  !
 ! R8    R(6,7)                  1.0915         calculate D2E/DX2 analytically  !
 ! R9    R(6,8)                  1.0882         calculate D2E/DX2 analytically  !
 ! R10   R(6,9)                  1.0886         calculate D2E/DX2 analytically  !
 ! R11   R(6,10)                 1.42           calculate D2E/DX2 analytically  !
 ! R12   R(10,11)                1.4081         calculate D2E/DX2 analytically  !
 ! R13   R(11,12)                1.1873         calculate D2E/DX2 analytically  !
 ! R14   R(14,15)                1.0885         calculate D2E/DX2 analytically  !
 ! R15   R(14,16)                1.0896         calculate D2E/DX2 analytically  !
 ! R16   R(14,17)                1.0948         calculate D2E/DX2 analytically  !
 ! A1    A(2,1,3)              107.8009         calculate D2E/DX2 analytically  !
 ! A2    A(2,1,4)              111.8679         calculate D2E/DX2 analytically  !
 ! A3    A(2,1,13)             107.8558         calculate D2E/DX2 analytically  !
 ! A4    A(3,1,4)              110.5242         calculate D2E/DX2 analytically  !
 ! A5    A(3,1,13)             107.7047         calculate D2E/DX2 analytically  !
 ! A6    A(4,1,13)             110.9241         calculate D2E/DX2 analytically  !
 ! A7    A(1,4,5)              114.0444         calculate D2E/DX2 analytically  !
 ! A8    A(1,4,12)             103.6608         calculate D2E/DX2 analytically  !
 ! A9    A(1,4,14)             116.9764         calculate D2E/DX2 analytically  !
 ! A10   A(5,4,12)             101.5598         calculate D2E/DX2 analytically  !
 ! A11   A(5,4,14)             113.9142         calculate D2E/DX2 analytically  !
 ! A12   A(12,4,14)            104.1785         calculate D2E/DX2 analytically  !
 ! A13   A(7,6,8)              109.8904         calculate D2E/DX2 analytically  !
 ! A14   A(7,6,9)              109.7552         calculate D2E/DX2 analytically  !
 ! A15   A(7,6,10)             110.8602         calculate D2E/DX2 analytically  !
 ! A16   A(8,6,9)              110.285          calculate D2E/DX2 analytically  !
 ! A17   A(8,6,10)             105.3375         calculate D2E/DX2 analytically  !
 ! A18   A(9,6,10)             110.6378         calculate D2E/DX2 analytically  !
 ! A19   A(6,10,11)            107.7231         calculate D2E/DX2 analytically  !
 ! A20   A(10,11,12)           104.2625         calculate D2E/DX2 analytically  !
 ! A21   A(4,14,15)            111.7935         calculate D2E/DX2 analytically  !
 ! A22   A(4,14,16)            110.9233         calculate D2E/DX2 analytically  !
 ! A23   A(4,14,17)            110.5224         calculate D2E/DX2 analytically  !
 ! A24   A(15,14,16)           108.3602         calculate D2E/DX2 analytically  !
 ! A25   A(15,14,17)           107.5933         calculate D2E/DX2 analytically  !
 ! A26   A(16,14,17)           107.4829         calculate D2E/DX2 analytically  !
 ! A27   L(4,12,11,7,-1)       181.5259         calculate D2E/DX2 analytically  !
 ! A28   L(4,12,11,7,-2)       176.2995         calculate D2E/DX2 analytically  !
 ! D1    D(2,1,4,5)            -53.7476         calculate D2E/DX2 analytically  !
 ! D2    D(2,1,4,12)            55.7798         calculate D2E/DX2 analytically  !
 ! D3    D(2,1,4,14)           169.769          calculate D2E/DX2 analytically  !
 ! D4    D(3,1,4,5)             66.3842         calculate D2E/DX2 analytically  !
 ! D5    D(3,1,4,12)           175.9116         calculate D2E/DX2 analytically  !
 ! D6    D(3,1,4,14)           -70.0992         calculate D2E/DX2 analytically  !
 ! D7    D(13,1,4,5)          -174.2235         calculate D2E/DX2 analytically  !
 ! D8    D(13,1,4,12)          -64.6961         calculate D2E/DX2 analytically  !
 ! D9    D(13,1,4,14)           49.2931         calculate D2E/DX2 analytically  !
 ! D10   D(1,4,11,10)          -25.7046         calculate D2E/DX2 analytically  !
 ! D11   D(5,4,11,10)           92.9563         calculate D2E/DX2 analytically  !
 ! D12   D(14,4,11,10)        -147.8659         calculate D2E/DX2 analytically  !
 ! D13   D(1,4,14,15)         -174.6098         calculate D2E/DX2 analytically  !
 ! D14   D(1,4,14,16)          -53.5419         calculate D2E/DX2 analytically  !
 ! D15   D(1,4,14,17)           65.5716         calculate D2E/DX2 analytically  !
 ! D16   D(5,4,14,15)           48.8519         calculate D2E/DX2 analytically  !
 ! D17   D(5,4,14,16)          169.9198         calculate D2E/DX2 analytically  !
 ! D18   D(5,4,14,17)          -70.9667         calculate D2E/DX2 analytically  !
 ! D19   D(12,4,14,15)         -60.9109         calculate D2E/DX2 analytically  !
 ! D20   D(12,4,14,16)          60.157          calculate D2E/DX2 analytically  !
 ! D21   D(12,4,14,17)         179.2705         calculate D2E/DX2 analytically  !
 ! D22   D(7,6,10,11)           65.3655         calculate D2E/DX2 analytically  !
 ! D23   D(8,6,10,11)         -175.8151         calculate D2E/DX2 analytically  !
 ! D24   D(9,6,10,11)          -56.6424         calculate D2E/DX2 analytically  !
 ! D25   D(6,10,11,12)         -91.8546         calculate D2E/DX2 analytically  !
 --------------------------------------------------------------------------------
 Trust Radius=3.00D-01 FncErr=1.00D-07 GrdErr=1.00D-07 EigMax=2.50D+02 EigMin=1.00D-04
 Number of steps in this run=    102 maximum allowed number of steps=    102.
 Search for a saddle point of order  1.
 GradGradGradGradGradGradGradGradGradGradGradGradGradGradGradGradGradGrad

                          Input orientation:                          
 ---------------------------------------------------------------------
 Center     Atomic      Atomic             Coordinates (Angstroms)
 Number     Number       Type             X           Y           Z
 ---------------------------------------------------------------------
      1          6           0        1.630677   -0.472195    1.058008
      2          1           0        0.940480   -1.248242    1.383832
      3          1           0        2.630419   -0.915169    1.002506
      4          6           0        1.235796    0.105782   -0.272103
      5          1           0        1.101202   -0.637257   -1.056246
      6          6           0       -2.236665   -1.016201    0.655523
      7          1           0       -1.556544   -1.636785    0.069201
      8          1           0       -2.619854   -1.583887    1.501134
      9          1           0       -3.057435   -0.674782    0.027106
     10          8           0       -1.549440    0.088267    1.225050
     11          8           0       -1.113680    0.912434    0.169744
     12          1           0       -0.020684    0.519301   -0.076266
     13          1           0        1.652486    0.299616    1.826568
     14          6           0        1.964705    1.342273   -0.722316
     15          1           0        1.550468    1.741692   -1.646315
     16          1           0        1.918291    2.120261    0.039116
     17          1           0        3.021707    1.120660   -0.902123
 ---------------------------------------------------------------------
                    Distance matrix (angstroms):
                    1          2          3          4          5
     1  C    0.000000
     2  H    1.088477   0.000000
     3  H    1.094893   1.764154   0.000000
     4  C    1.503058   2.159332   2.147543   0.000000
     5  H    2.185786   2.520539   2.579574   1.088624   0.000000
     6  C    3.926101   3.267802   4.880483   3.765278   3.770293
     7  H    3.534457   2.848570   4.349994   3.309107   3.054390
     8  H    4.415794   3.578044   5.316125   4.567865   4.613302
     9  H    4.804393   4.260620   5.775887   4.373859   4.297595
    10  O    3.233445   2.830401   4.304373   3.162169   3.571638
    11  O    3.199642   3.219022   4.248753   2.523084   2.968214
    12  H    2.235315   2.485947   3.201531   1.337196   1.885899
    13  H    1.089428   1.760350   1.763841   2.148400   3.080951
    14  C    2.563869   3.492229   2.917915   1.504297   2.185334
    15  H    3.495868   4.300416   3.904031   2.159555   2.491871
    16  H    2.800302   3.756486   3.263293   2.149601   3.077557
    17  H    2.883447   3.894713   2.815194   2.148576   2.608134
                    6          7          8          9         10
     6  C    0.000000
     7  H    1.091541   0.000000
     8  H    1.088191   1.784337   0.000000
     9  H    1.088641   1.783226   1.786255   0.000000
    10  O    1.420031   2.076497   2.004522   2.071560   0.000000
    11  O    2.284012   2.589354   3.205117   2.513520   1.408122
    12  H    2.793538   2.651176   3.696928   3.264717   2.053365
    13  H    4.269452   4.139548   4.680425   5.135258   3.264785
    14  C    5.011222   4.679795   5.875740   5.463702   4.208798
    15  H    5.219848   4.900064   6.193343   5.465570   4.537398
    16  H    5.242233   5.117693   6.037629   5.707036   4.190537
    17  H    5.885823   5.432067   6.702047   6.406485   5.146463
                   11         12         13         14         15
    11  O    0.000000
    12  H    1.187314   0.000000
    13  H    3.282116   2.543332   0.000000
    14  C    3.233726   2.244200   2.771538   0.000000
    15  H    3.329178   2.535313   3.761769   1.088532   0.000000
    16  H    3.266306   2.517143   2.565226   1.089586   1.766150
    17  H    4.277111   3.209333   3.161429   1.094850   1.761830
                   16         17
    16  H    0.000000
    17  H    1.761437   0.000000
 Stoichiometry    C4H11O2(2)
 Framework group  C1[X(C4H11O2)]
 Deg. of freedom    45
 Full point group                 C1      NOp   1
 Largest Abelian subgroup         C1      NOp   1
 Largest concise Abelian subgroup C1      NOp   1
                         Standard orientation:                         
 ---------------------------------------------------------------------
 Center     Atomic      Atomic             Coordinates (Angstroms)
 Number     Number       Type             X           Y           Z
 ---------------------------------------------------------------------
      1          6           0        1.190591    1.435126   -0.262202
      2          1           0        0.259673    1.952434   -0.037331
      3          1           0        2.017058    2.098095    0.013868
      4          6           0        1.295999    0.127749    0.471853
      5          1           0        1.157617    0.211113    1.548423
      6          6           0       -2.467445    0.238046    0.512419
      7          1           0       -1.860110    0.629611    1.330517
      8          1           0       -3.180071    0.992950    0.186162
      9          1           0       -2.990836   -0.658816    0.839282
     10          8           0       -1.664818   -0.037757   -0.626093
     11          8           0       -0.783889   -1.082519   -0.286615
     12          1           0        0.188547   -0.528163    0.109330
     13          1           0        1.235243    1.281017   -1.339750
     14          6           0        2.416876   -0.791744    0.070509
     15          1           0        2.359013   -1.748573    0.586291
     16          1           0        2.401256   -0.978904   -1.002769
     17          1           0        3.386142   -0.343614    0.312171
 ---------------------------------------------------------------------
 Rotational constants (GHZ):           5.5943320           1.6331361           1.4230241
 Standard basis: CC-pVTZ (5D, 7F)
 There are   375 symmetry adapted cartesian basis functions of A   symmetry.
 There are   334 symmetry adapted basis functions of A   symmetry.
   334 basis functions,   499 primitive gaussians,   375 cartesian basis functions
    26 alpha electrons       25 beta electrons
       nuclear repulsion energy       254.6092330983 Hartrees.
 NAtoms=   17 NActive=   17 NUniq=   17 SFac= 1.00D+00 NAtFMM=   60 NAOKFM=F Big=F
 Integral buffers will be    131072 words long.
 Raffenetti 2 integral format.
 Two-electron integral symmetry is turned on.
 Nuclear repulsion after empirical dispersion term =      254.6011673886 Hartrees.
 One-electron integrals computed using PRISM.
 NBasis=   334 RedAO= T EigKep=  7.88D-04  NBF=   334
 NBsUse=   334 1.00D-06 EigRej= -1.00D+00 NBFU=   334
 ExpMin= 1.03D-01 ExpMax= 1.53D+04 ExpMxC= 5.22D+02 IAcc=3 IRadAn=         5 AccDes= 0.00D+00
 Harris functional with IExCor=  419 and IRadAn=       5 diagonalized for initial guess.
 HarFok:  IExCor=  419 AccDes= 0.00D+00 IRadAn=         5 IDoV= 1 UseB2=F ITyADJ=14
 ICtDFT=  3500011 ScaDFX=  1.000000  1.000000  1.000000  1.000000
 FoFCou: FMM=F IPFlag=           0 FMFlag=      100000 FMFlg1=           0
         NFxFlg=           0 DoJE=T BraDBF=F KetDBF=T FulRan=T
         wScrn=  0.000000 ICntrl=       500 IOpCl=  0 I1Cent=   200000004 NGrid=           0
         NMat0=    1 NMatS0=      1 NMatT0=    0 NMatD0=    1 NMtDS0=    0 NMtDT0=    0
 Petite list used in FoFCou.
 Initial guess <Sx>= 0.0000 <Sy>= 0.0000 <Sz>= 0.5000 <S**2>= 0.7500 S= 0.5000
 Requested convergence on RMS density matrix=1.00D-08 within 128 cycles.
 Requested convergence on MAX density matrix=1.00D-06.
 Requested convergence on             energy=1.00D-06.
 No special actions if energy rises.
 Integral accuracy reduced to 1.0D-05 until final iterations.
 Initial convergence to 1.0D-05 achieved.  Increase integral accuracy.
 SCF Done:  E(UB2PLYPD3) =  -308.795422637     A.U. after   19 cycles
            NFock= 19  Conv=0.30D-08     -V/T= 2.0044
 <Sx>= 0.0000 <Sy>= 0.0000 <Sz>= 0.5000 <S**2>= 0.7683 S= 0.5091
 <L.S>=  0.00000000000    
 Annihilation of the first spin contaminant:
 S**2 before annihilation     0.7683,   after     0.7502
 DoSCS=T DFT=T ScalE2(SS,OS)=  0.270000  0.270000
 ExpMin= 1.03D-01 ExpMax= 1.53D+04 ExpMxC= 5.22D+02 IAcc=3 IRadAn=         5 AccDes= 0.00D+00
 HarFok:  IExCor=  205 AccDes= 0.00D+00 IRadAn=         5 IDoV=-2 UseB2=F ITyADJ=14
 ICtDFT= 12500011 ScaDFX=  1.000000  1.000000  1.000000  1.000000
 Range of M.O.s used for correlation:     7   334
 NBasis=   334 NAE=    26 NBE=    25 NFC=     6 NFV=     0
 NROrb=    328 NOA=    20 NOB=    19 NVA=   308 NVB=   309

 **** Warning!!: The largest alpha MO coefficient is  0.12007965D+02


 **** Warning!!: The largest beta MO coefficient is  0.12019310D+02

 DoSCS=T DFT=T ScalE2(SS,OS)=  0.270000  0.270000
 Disk-based method using ON**2 memory for 20 occupieds at a time.
 Permanent disk used for amplitudes=    91502950 words.
 Estimated scratch disk usage=  1814573182 words.
 Actual    scratch disk usage=  1754982526 words.
 JobTyp=2 Pass  1:  I=   7 to  26 NPSUse= 40 ParTrn=T ParDer=T DoDerP=T.
 (rs|ai) integrals will be sorted in core.
 Actual    scratch disk usage=  1754982526 words.
 JobTyp=3 Pass  1:  I=   7 to  25 NPSUse= 40 ParTrn=T ParDer=T DoDerP=T.
 (rs|ai) integrals will be sorted in core.
 Spin components of T(2) and E(2):
     alpha-alpha T2 =       0.6412099662D-01 E2=     -0.4719669466D-01
     alpha-beta  T2 =       0.3976404514D+00 E2=     -0.2995963100D+00
     beta-beta   T2 =       0.6984815088D-01 E2=     -0.4613567115D-01
 (S**2,0)=  0.76833D+00           (S**2,1)=  0.74269D+00
 Scaling Projection term by:   0.270000
 E(PUHF)=      -0.30880162170D+03        E(PMP2)=      -0.30918886031D+03
 E2(B2PLYPD3) =    -0.3929286758D+00 E(B2PLYPD3) =    -0.30918835131283D+03
 G2DrvN: will do    18 centers at a time, making    1 passes.
 Calling FoFCou, ICntrl=  3107 FMM=F I1Cent=   0 AccDes= 0.00D+00.
 End of G2Drv F.D. properties file   721 does not exist.
 End of G2Drv F.D. properties file   722 does not exist.
 End of G2Drv F.D. properties file   788 does not exist.
          IDoAtm=11111111111111111
          Differentiating once with respect to electric field.
                with respect to dipole field.
          Differentiating once with respect to nuclear coordinates.
 Keep R1 and R2 ints in memory in canonical form, NReq=3176104348.
          There are    54 degrees of freedom in the 1st order CPHF.  IDoFFX=6 NUNeed=    54.
     51 vectors produced by pass  0 Test12= 2.91D-14 1.85D-09 XBig12= 7.88D+01 5.33D+00.
 AX will form    51 AO Fock derivatives at one time.
     51 vectors produced by pass  1 Test12= 2.91D-14 1.85D-09 XBig12= 6.30D+00 3.02D-01.
     51 vectors produced by pass  2 Test12= 2.91D-14 1.85D-09 XBig12= 2.45D-01 8.87D-02.
     51 vectors produced by pass  3 Test12= 2.91D-14 1.85D-09 XBig12= 3.78D-03 7.17D-03.
     51 vectors produced by pass  4 Test12= 2.91D-14 1.85D-09 XBig12= 5.89D-05 8.06D-04.
     51 vectors produced by pass  5 Test12= 2.91D-14 1.85D-09 XBig12= 8.65D-07 1.19D-04.
     50 vectors produced by pass  6 Test12= 2.91D-14 1.85D-09 XBig12= 6.87D-09 6.95D-06.
     20 vectors produced by pass  7 Test12= 2.91D-14 1.85D-09 XBig12= 4.27D-11 5.23D-07.
      3 vectors produced by pass  8 Test12= 2.91D-14 1.85D-09 XBig12= 2.97D-13 4.85D-08.
      2 vectors produced by pass  9 Test12= 2.91D-14 1.85D-09 XBig12= 2.56D-15 4.14D-09.
 InvSVY:  IOpt=1 It=  1 EMax= 8.88D-15
 Solved reduced A of dimension   381 with    54 vectors.
 End of Minotr F.D. properties file   721 does not exist.
 End of Minotr F.D. properties file   722 does not exist.
 End of Minotr F.D. properties file   788 does not exist.
 MDV= 10737418240.
 DoSCS=T DFT=T ScalE2(SS,OS)=  0.270000  0.270000
 Form MO integral derivatives with frozen-active canonical formalism.
 Discarding MO integrals.
 Reordered first order wavefunction length =    368623478
 In DefCFB: NBatch=  1 ICI= 26 ICA=309 LFMax= 78
            Large arrays: LIAPS=  7882233000 LIARS=  1476247500 words.
 In DefCFB: NBatch=  1 ICI= 26 ICA=309 LFMax= 78
            Large arrays: LIAPS=  7882233000 LIARS=  1476247500 words.
 Semi-Direct transformation.
 ModeAB=           4 MOrb=            26 LenV=   10734121741
 LASXX=    460751213 LTotXX=   460751213 LenRXX=   928395468
 LTotAB=   467644255 MaxLAS=   558815400 LenRXY=           0
 NonZer=  1389146681 LenScr=  2091891712 LnRSAI=   558815400
 LnScr1=   841510912 LExtra=           0 Total=   4420613492
 MaxDsk=          -1 SrtSym=           T ITran=            4
 JobTyp=1 Pass  1:  I=   1 to  26.
 (rs|ai) integrals will be sorted in core.
 ModeAB=           4 MOrb=            25 LenV=   10734121741
 LASXX=    443915925 LTotXX=   443915925 LenRXX=   826983225
 LTotAB=   383067300 MaxLAS=   537322500 LenRXY=           0
 NonZer=  1270899150 LenScr=  1913825280 LnRSAI=   537322500
 LnScr1=   809145344 LExtra=           0 Total=   4087276349
 MaxDsk=          -1 SrtSym=           T ITran=            4
 JobTyp=2 Pass  1:  I=   1 to  25.
 (rs|ai) integrals will be sorted in core.
 SymMOI:  orbitals are not symmetric.
 DoSCS=T DFT=T ScalE2(SS,OS)=  0.270000  0.270000
 Spin components of T(2) and E(2):
     alpha-alpha T2 =       0.6412099662D-01 E2=     -0.4719669466D-01
     alpha-beta  T2 =       0.3976404514D+00 E2=     -0.2995963100D+00
     beta-beta   T2 =       0.6984815088D-01 E2=     -0.4613567115D-01
 E2(B2PLYPD3) =    -0.3929286758D+00 E(B2PLYPD3) =    -0.30918835131283D+03
 (S**2,0)=  0.76833D+00           (S**2,1)=  0.74269D+00
 Scaling Projection term by:   0.270000
 E(PUHF)=      -0.30880162170D+03        E(PMP2)=      -0.30918886031D+03
          IDoAtm=11111111111111111
          Differentiating once with respect to electric field.
                with respect to dipole field.
          Differentiating once with respect to nuclear coordinates.
 Keep R1 and R2 ints in memory in canonical form, NReq=3176239665.
          There are     1 degrees of freedom in the 1st order CPHF.  IDoFFX=0 NUNeed=     1.
 LinEq1:  Iter=  0 NonCon=     1 RMS=8.71D-04 Max=6.13D-02 NDo=     1
 AX will form     1 AO Fock derivatives at one time.
 LinEq1:  Iter=  1 NonCon=     1 RMS=2.86D-04 Max=9.92D-03 NDo=     1
 LinEq1:  Iter=  2 NonCon=     1 RMS=1.59D-04 Max=7.80D-03 NDo=     1
 LinEq1:  Iter=  3 NonCon=     1 RMS=6.73D-05 Max=1.17D-03 NDo=     1
 LinEq1:  Iter=  4 NonCon=     1 RMS=3.69D-05 Max=7.30D-04 NDo=     1
 LinEq1:  Iter=  5 NonCon=     1 RMS=2.74D-05 Max=7.86D-04 NDo=     1
 LinEq1:  Iter=  6 NonCon=     1 RMS=1.70D-05 Max=5.36D-04 NDo=     1
 LinEq1:  Iter=  7 NonCon=     1 RMS=5.60D-06 Max=8.75D-05 NDo=     1
 LinEq1:  Iter=  8 NonCon=     1 RMS=2.30D-06 Max=3.29D-05 NDo=     1
 LinEq1:  Iter=  9 NonCon=     1 RMS=1.00D-06 Max=1.80D-05 NDo=     1
 LinEq1:  Iter= 10 NonCon=     1 RMS=3.84D-07 Max=6.37D-06 NDo=     1
 LinEq1:  Iter= 11 NonCon=     1 RMS=1.40D-07 Max=2.74D-06 NDo=     1
 LinEq1:  Iter= 12 NonCon=     1 RMS=4.46D-08 Max=1.18D-06 NDo=     1
 LinEq1:  Iter= 13 NonCon=     1 RMS=2.02D-08 Max=3.42D-07 NDo=     1
 LinEq1:  Iter= 14 NonCon=     1 RMS=7.65D-09 Max=2.16D-07 NDo=     1
 LinEq1:  Iter= 15 NonCon=     1 RMS=2.26D-09 Max=8.27D-08 NDo=     1
 LinEq1:  Iter= 16 NonCon=     1 RMS=8.31D-10 Max=4.03D-08 NDo=     1
 LinEq1:  Iter= 17 NonCon=     1 RMS=3.41D-10 Max=1.84D-08 NDo=     1
 LinEq1:  Iter= 18 NonCon=     1 RMS=1.48D-10 Max=6.68D-09 NDo=     1
 LinEq1:  Iter= 19 NonCon=     1 RMS=6.95D-11 Max=2.29D-09 NDo=     1
 LinEq1:  Iter= 20 NonCon=     0 RMS=2.37D-11 Max=5.12D-10 NDo=     1
 Linear equations converged to 1.000D-10 1.000D-09 after    20 iterations.
 End of Minotr F.D. properties file   721 does not exist.
 End of Minotr F.D. properties file   722 does not exist.
 End of Minotr F.D. properties file   788 does not exist.
 Symmetrizing basis deriv contribution to polar:
 IMax=3 JMax=2 DiffMx= 0.00D+00
 G2DrvN: will do    18 centers at a time, making    1 passes.
 Calling FoFCou, ICntrl=  3107 FMM=F I1Cent=   0 AccDes= 0.00D+00.
 End of G2Drv F.D. properties file   721 does not exist.
 End of G2Drv F.D. properties file   722 does not exist.
 End of G2Drv F.D. properties file   788 does not exist.
 DoSCS=T DFT=T ScalE2(SS,OS)=  0.270000  0.270000
 R2 and R3 integrals will be kept in memory, NReq=  4996899000.
 DD1Dir will call FoFMem   1 times, MxPair=      1926
 NAB=   650 NAA=   325 NBB=   300.
 Discarding MO integrals.

 **********************************************************************

            Population analysis using the SCF Density.

 **********************************************************************

 Orbital symmetries:
 Alpha Orbitals:
       Occupied  (A) (A) (A) (A) (A) (A) (A) (A) (A) (A) (A) (A)
                 (A) (A) (A) (A) (A) (A) (A) (A) (A) (A) (A) (A)
                 (A) (A)
       Virtual   (A) (A) (A) (A) (A) (A) (A) (A) (A) (A) (A) (A)
                 (A) (A) (A) (A) (A) (A) (A) (A) (A) (A) (A) (A)
                 (A) (A) (A) (A) (A) (A) (A) (A) (A) (A) (A) (A)
                 (A) (A) (A) (A) (A) (A) (A) (A) (A) (A) (A) (A)
                 (A) (A) (A) (A) (A) (A) (A) (A) (A) (A) (A) (A)
                 (A) (A) (A) (A) (A) (A) (A) (A) (A) (A) (A) (A)
                 (A) (A) (A) (A) (A) (A) (A) (A) (A) (A) (A) (A)
                 (A) (A) (A) (A) (A) (A) (A) (A) (A) (A) (A) (A)
                 (A) (A) (A) (A) (A) (A) (A) (A) (A) (A) (A) (A)
                 (A) (A) (A) (A) (A) (A) (A) (A) (A) (A) (A) (A)
                 (A) (A) (A) (A) (A) (A) (A) (A) (A) (A) (A) (A)
                 (A) (A) (A) (A) (A) (A) (A) (A) (A) (A) (A) (A)
                 (A) (A) (A) (A) (A) (A) (A) (A) (A) (A) (A) (A)
                 (A) (A) (A) (A) (A) (A) (A) (A) (A) (A) (A) (A)
                 (A) (A) (A) (A) (A) (A) (A) (A) (A) (A) (A) (A)
                 (A) (A) (A) (A) (A) (A) (A) (A) (A) (A) (A) (A)
                 (A) (A) (A) (A) (A) (A) (A) (A) (A) (A) (A) (A)
                 (A) (A) (A) (A) (A) (A) (A) (A) (A) (A) (A) (A)
                 (A) (A) (A) (A) (A) (A) (A) (A) (A) (A) (A) (A)
                 (A) (A) (A) (A) (A) (A) (A) (A) (A) (A) (A) (A)
                 (A) (A) (A) (A) (A) (A) (A) (A) (A) (A) (A) (A)
                 (A) (A) (A) (A) (A) (A) (A) (A) (A) (A) (A) (A)
                 (A) (A) (A) (A) (A) (A) (A) (A) (A) (A) (A) (A)
                 (A) (A) (A) (A) (A) (A) (A) (A) (A) (A) (A) (A)
                 (A) (A) (A) (A) (A) (A) (A) (A) (A) (A) (A) (A)
                 (A) (A) (A) (A) (A) (A) (A) (A)
 Beta  Orbitals:
       Occupied  (A) (A) (A) (A) (A) (A) (A) (A) (A) (A) (A) (A)
                 (A) (A) (A) (A) (A) (A) (A) (A) (A) (A) (A) (A)
                 (A)
       Virtual   (A) (A) (A) (A) (A) (A) (A) (A) (A) (A) (A) (A)
                 (A) (A) (A) (A) (A) (A) (A) (A) (A) (A) (A) (A)
                 (A) (A) (A) (A) (A) (A) (A) (A) (A) (A) (A) (A)
                 (A) (A) (A) (A) (A) (A) (A) (A) (A) (A) (A) (A)
                 (A) (A) (A) (A) (A) (A) (A) (A) (A) (A) (A) (A)
                 (A) (A) (A) (A) (A) (A) (A) (A) (A) (A) (A) (A)
                 (A) (A) (A) (A) (A) (A) (A) (A) (A) (A) (A) (A)
                 (A) (A) (A) (A) (A) (A) (A) (A) (A) (A) (A) (A)
                 (A) (A) (A) (A) (A) (A) (A) (A) (A) (A) (A) (A)
                 (A) (A) (A) (A) (A) (A) (A) (A) (A) (A) (A) (A)
                 (A) (A) (A) (A) (A) (A) (A) (A) (A) (A) (A) (A)
                 (A) (A) (A) (A) (A) (A) (A) (A) (A) (A) (A) (A)
                 (A) (A) (A) (A) (A) (A) (A) (A) (A) (A) (A) (A)
                 (A) (A) (A) (A) (A) (A) (A) (A) (A) (A) (A) (A)
                 (A) (A) (A) (A) (A) (A) (A) (A) (A) (A) (A) (A)
                 (A) (A) (A) (A) (A) (A) (A) (A) (A) (A) (A) (A)
                 (A) (A) (A) (A) (A) (A) (A) (A) (A) (A) (A) (A)
                 (A) (A) (A) (A) (A) (A) (A) (A) (A) (A) (A) (A)
                 (A) (A) (A) (A) (A) (A) (A) (A) (A) (A) (A) (A)
                 (A) (A) (A) (A) (A) (A) (A) (A) (A) (A) (A) (A)
                 (A) (A) (A) (A) (A) (A) (A) (A) (A) (A) (A) (A)
                 (A) (A) (A) (A) (A) (A) (A) (A) (A) (A) (A) (A)
                 (A) (A) (A) (A) (A) (A) (A) (A) (A) (A) (A) (A)
                 (A) (A) (A) (A) (A) (A) (A) (A) (A) (A) (A) (A)
                 (A) (A) (A) (A) (A) (A) (A) (A) (A) (A) (A) (A)
                 (A) (A) (A) (A) (A) (A) (A) (A) (A)
 The electronic state is 2-A.
 Alpha  occ. eigenvalues --  -19.78328 -19.78000 -10.65875 -10.63994 -10.61200
 Alpha  occ. eigenvalues --  -10.61013  -1.26983  -1.01599  -0.91878  -0.80299
 Alpha  occ. eigenvalues --   -0.77473  -0.69121  -0.60530  -0.55520  -0.54316
 Alpha  occ. eigenvalues --   -0.53539  -0.51619  -0.48226  -0.47888  -0.46035
 Alpha  occ. eigenvalues --   -0.43791  -0.42153  -0.41755  -0.36415  -0.36205
 Alpha  occ. eigenvalues --   -0.28835
 Alpha virt. eigenvalues --    0.07329   0.09221   0.10975   0.11904   0.13977
 Alpha virt. eigenvalues --    0.14310   0.15029   0.15817   0.16644   0.18360
 Alpha virt. eigenvalues --    0.19113   0.19803   0.22393   0.26078   0.27858
 Alpha virt. eigenvalues --    0.29604   0.29920   0.32208   0.33210   0.34820
 Alpha virt. eigenvalues --    0.36392   0.37715   0.41893   0.43333   0.45733
 Alpha virt. eigenvalues --    0.47994   0.49219   0.50561   0.51177   0.51821
 Alpha virt. eigenvalues --    0.52323   0.52943   0.53631   0.53966   0.55901
 Alpha virt. eigenvalues --    0.56382   0.57257   0.58086   0.59045   0.60246
 Alpha virt. eigenvalues --    0.62231   0.64056   0.68040   0.69175   0.70822
 Alpha virt. eigenvalues --    0.73849   0.76676   0.77691   0.79753   0.83900
 Alpha virt. eigenvalues --    0.85799   0.87727   0.89887   0.91609   0.93779
 Alpha virt. eigenvalues --    0.95632   0.97785   0.98371   1.01369   1.02984
 Alpha virt. eigenvalues --    1.04270   1.05590   1.06951   1.08509   1.09138
 Alpha virt. eigenvalues --    1.11027   1.11644   1.13665   1.15966   1.17162
 Alpha virt. eigenvalues --    1.17912   1.19481   1.20117   1.21862   1.23113
 Alpha virt. eigenvalues --    1.24919   1.26897   1.29307   1.29846   1.34062
 Alpha virt. eigenvalues --    1.34661   1.36367   1.37805   1.37984   1.39337
 Alpha virt. eigenvalues --    1.39815   1.41426   1.42176   1.44990   1.45808
 Alpha virt. eigenvalues --    1.47480   1.50167   1.52186   1.52809   1.56399
 Alpha virt. eigenvalues --    1.57176   1.60762   1.62344   1.63746   1.68883
 Alpha virt. eigenvalues --    1.71163   1.74611   1.77653   1.80023   1.90917
 Alpha virt. eigenvalues --    1.94334   2.00278   2.05607   2.13328   2.18079
 Alpha virt. eigenvalues --    2.23043   2.28803   2.30455   2.36335   2.36867
 Alpha virt. eigenvalues --    2.39828   2.43538   2.45696   2.46745   2.47886
 Alpha virt. eigenvalues --    2.51812   2.53975   2.58608   2.60158   2.62234
 Alpha virt. eigenvalues --    2.63547   2.67567   2.73139   2.74294   2.77586
 Alpha virt. eigenvalues --    2.78890   2.79957   2.83482   2.87044   2.88303
 Alpha virt. eigenvalues --    2.90322   2.91460   2.92468   2.93496   2.94288
 Alpha virt. eigenvalues --    2.96012   2.98444   3.02105   3.03080   3.04176
 Alpha virt. eigenvalues --    3.05181   3.05824   3.10059   3.11194   3.12090
 Alpha virt. eigenvalues --    3.13724   3.15340   3.15684   3.18191   3.19033
 Alpha virt. eigenvalues --    3.20021   3.20358   3.21423   3.22682   3.24157
 Alpha virt. eigenvalues --    3.26261   3.27505   3.30769   3.37737   3.41454
 Alpha virt. eigenvalues --    3.41937   3.42485   3.43709   3.44879   3.46500
 Alpha virt. eigenvalues --    3.47110   3.50926   3.52378   3.53098   3.53993
 Alpha virt. eigenvalues --    3.54352   3.56761   3.58507   3.60123   3.61274
 Alpha virt. eigenvalues --    3.61488   3.62543   3.65484   3.69007   3.69419
 Alpha virt. eigenvalues --    3.71674   3.75880   3.81414   3.83979   3.85655
 Alpha virt. eigenvalues --    3.86771   3.87724   3.89801   3.91393   3.92190
 Alpha virt. eigenvalues --    3.94139   3.94709   3.95225   3.97216   3.98088
 Alpha virt. eigenvalues --    3.99608   4.00858   4.05985   4.07505   4.08323
 Alpha virt. eigenvalues --    4.09091   4.09788   4.11956   4.13550   4.15178
 Alpha virt. eigenvalues --    4.17094   4.18967   4.22446   4.25118   4.25527
 Alpha virt. eigenvalues --    4.26224   4.27337   4.28017   4.29586   4.31595
 Alpha virt. eigenvalues --    4.34385   4.36529   4.39692   4.40740   4.41015
 Alpha virt. eigenvalues --    4.43992   4.46394   4.48010   4.49004   4.52630
 Alpha virt. eigenvalues --    4.56677   4.60332   4.65128   4.66348   4.67485
 Alpha virt. eigenvalues --    4.72539   4.73333   4.79784   4.82181   4.87739
 Alpha virt. eigenvalues --    4.93537   4.94251   4.96316   4.98524   4.99558
 Alpha virt. eigenvalues --    5.00981   5.02948   5.03683   5.06469   5.09179
 Alpha virt. eigenvalues --    5.10557   5.15143   5.18521   5.25429   5.25847
 Alpha virt. eigenvalues --    5.27998   5.28715   5.30773   5.32451   5.34166
 Alpha virt. eigenvalues --    5.35008   5.37668   5.39439   5.41098   5.42259
 Alpha virt. eigenvalues --    5.46635   5.47854   5.50247   5.51259   5.53081
 Alpha virt. eigenvalues --    5.53662   5.56908   5.61304   5.66737   5.68964
 Alpha virt. eigenvalues --    5.70221   5.80378   5.92608   5.95692   5.97381
 Alpha virt. eigenvalues --    6.00588   6.03820   6.07576   6.08266   6.09138
 Alpha virt. eigenvalues --    6.10455   6.26135   6.30304   6.38584   6.40968
 Alpha virt. eigenvalues --    6.64767   6.75014   6.76093   6.83371   6.96720
 Alpha virt. eigenvalues --    7.06027   7.07261   7.18162   7.42945   7.47610
 Alpha virt. eigenvalues --    7.58137   7.75142   9.89703  10.62263  11.85214
 Alpha virt. eigenvalues --   13.42775  13.81594  13.87634
  Beta  occ. eigenvalues --  -19.78172 -19.76314 -10.65885 -10.62781 -10.61253
  Beta  occ. eigenvalues --  -10.61066  -1.25064  -0.98575  -0.89967  -0.80102
  Beta  occ. eigenvalues --   -0.77044  -0.66609  -0.57337  -0.54349  -0.53907
  Beta  occ. eigenvalues --   -0.52911  -0.50106  -0.47690  -0.45533  -0.44267
  Beta  occ. eigenvalues --   -0.42753  -0.41806  -0.41357  -0.34927  -0.32935
  Beta virt. eigenvalues --   -0.03714   0.07448   0.09305   0.11186   0.12116
  Beta virt. eigenvalues --    0.14235   0.14817   0.15100   0.15920   0.16735
  Beta virt. eigenvalues --    0.18587   0.19210   0.20252   0.22926   0.26612
  Beta virt. eigenvalues --    0.28145   0.29970   0.30081   0.32419   0.33731
  Beta virt. eigenvalues --    0.35499   0.37156   0.38144   0.42075   0.44572
  Beta virt. eigenvalues --    0.45837   0.48292   0.49975   0.50944   0.51283
  Beta virt. eigenvalues --    0.52254   0.52421   0.53212   0.53786   0.54967
  Beta virt. eigenvalues --    0.56038   0.57002   0.58447   0.58858   0.59972
  Beta virt. eigenvalues --    0.61004   0.62716   0.64638   0.68185   0.69644
  Beta virt. eigenvalues --    0.71072   0.74185   0.77175   0.77889   0.80194
  Beta virt. eigenvalues --    0.84264   0.86289   0.87940   0.90187   0.91900
  Beta virt. eigenvalues --    0.94002   0.95707   0.97990   0.98590   1.01611
  Beta virt. eigenvalues --    1.03248   1.04443   1.06092   1.07128   1.08853
  Beta virt. eigenvalues --    1.09263   1.11548   1.11827   1.13913   1.16082
  Beta virt. eigenvalues --    1.17458   1.18057   1.20218   1.20566   1.22114
  Beta virt. eigenvalues --    1.23226   1.25238   1.27244   1.29741   1.30452
  Beta virt. eigenvalues --    1.34267   1.34893   1.36703   1.38020   1.38381
  Beta virt. eigenvalues --    1.39444   1.40049   1.41565   1.42575   1.45415
  Beta virt. eigenvalues --    1.46342   1.47825   1.50473   1.52607   1.53335
  Beta virt. eigenvalues --    1.56754   1.57361   1.61036   1.62596   1.64240
  Beta virt. eigenvalues --    1.69707   1.71536   1.75226   1.78447   1.80334
  Beta virt. eigenvalues --    1.93504   1.95129   2.00885   2.06555   2.13654
  Beta virt. eigenvalues --    2.19811   2.23371   2.29764   2.31116   2.36557
  Beta virt. eigenvalues --    2.37282   2.40390   2.43988   2.46492   2.47368
  Beta virt. eigenvalues --    2.48251   2.52062   2.54374   2.59379   2.60740
  Beta virt. eigenvalues --    2.62575   2.63993   2.68439   2.73541   2.74642
  Beta virt. eigenvalues --    2.78231   2.79241   2.80801   2.83434   2.86959
  Beta virt. eigenvalues --    2.88885   2.90603   2.91654   2.92554   2.93666
  Beta virt. eigenvalues --    2.94619   2.96480   2.98859   3.02235   3.03463
  Beta virt. eigenvalues --    3.04501   3.05255   3.06701   3.10523   3.11333
  Beta virt. eigenvalues --    3.12159   3.13938   3.15459   3.15878   3.18321
  Beta virt. eigenvalues --    3.19287   3.20296   3.20560   3.21605   3.22985
  Beta virt. eigenvalues --    3.24494   3.26502   3.28535   3.31381   3.39325
  Beta virt. eigenvalues --    3.41655   3.42555   3.42796   3.44553   3.45328
  Beta virt. eigenvalues --    3.47188   3.47576   3.50997   3.52583   3.53373
  Beta virt. eigenvalues --    3.54221   3.54604   3.57057   3.58969   3.60374
  Beta virt. eigenvalues --    3.61527   3.61903   3.62919   3.65816   3.69073
  Beta virt. eigenvalues --    3.69699   3.72002   3.76247   3.82088   3.84061
  Beta virt. eigenvalues --    3.85949   3.86975   3.87910   3.90036   3.91748
  Beta virt. eigenvalues --    3.92671   3.94284   3.95020   3.95459   3.97460
  Beta virt. eigenvalues --    3.98509   3.99813   4.01268   4.05929   4.07874
  Beta virt. eigenvalues --    4.08543   4.09272   4.09944   4.12380   4.13850
  Beta virt. eigenvalues --    4.15547   4.17222   4.19023   4.22642   4.25422
  Beta virt. eigenvalues --    4.25860   4.26629   4.27508   4.28299   4.29985
  Beta virt. eigenvalues --    4.31938   4.34954   4.36557   4.40199   4.40877
  Beta virt. eigenvalues --    4.41583   4.44410   4.46610   4.48143   4.49324
  Beta virt. eigenvalues --    4.52984   4.57167   4.60927   4.65942   4.67223
  Beta virt. eigenvalues --    4.68019   4.73133   4.73670   4.80264   4.82363
  Beta virt. eigenvalues --    4.88446   4.93778   4.94411   4.96606   4.98747
  Beta virt. eigenvalues --    4.99744   5.01110   5.03186   5.04017   5.06703
  Beta virt. eigenvalues --    5.09396   5.11182   5.15453   5.19729   5.25579
  Beta virt. eigenvalues --    5.26217   5.28572   5.28910   5.31043   5.32917
  Beta virt. eigenvalues --    5.34526   5.35320   5.37865   5.40038   5.41453
  Beta virt. eigenvalues --    5.42710   5.46969   5.48324   5.50437   5.51495
  Beta virt. eigenvalues --    5.53321   5.53850   5.57183   5.61760   5.67222
  Beta virt. eigenvalues --    5.69457   5.71528   5.80782   5.92845   5.96531
  Beta virt. eigenvalues --    5.97945   6.01410   6.03918   6.07851   6.08606
  Beta virt. eigenvalues --    6.09513   6.11182   6.26786   6.32338   6.39221
  Beta virt. eigenvalues --    6.42237   6.65743   6.77211   6.78898   6.84552
  Beta virt. eigenvalues --    6.98555   7.07456   7.08405   7.20557   7.43142
  Beta virt. eigenvalues --    7.49819   7.59948   7.75777   9.90664  10.63361
  Beta virt. eigenvalues --   11.86160  13.42775  13.81670  13.87684
          Condensed to atoms (all electrons):
               1          2          3          4          5          6
     1  C    4.840087   0.410500   0.399827   0.328527  -0.039530  -0.001323
     2  H    0.410500   0.570405  -0.032781  -0.034153  -0.003560  -0.000805
     3  H    0.399827  -0.032781   0.606055  -0.038611  -0.004565  -0.000052
     4  C    0.328527  -0.034153  -0.038611   5.152944   0.401437  -0.002133
     5  H   -0.039530  -0.003560  -0.004565   0.401437   0.573311   0.000298
     6  C   -0.001323  -0.000805  -0.000052  -0.002133   0.000298   4.606049
     7  H    0.000462  -0.002716  -0.000065   0.000408  -0.000698   0.391920
     8  H   -0.000088   0.000059  -0.000006   0.000323  -0.000048   0.395575
     9  H    0.000225   0.000330   0.000008  -0.000653   0.000002   0.412865
    10  O    0.002354   0.005665   0.000300   0.001827   0.000074   0.303851
    11  O   -0.002049  -0.000293  -0.000256  -0.079492  -0.000209  -0.046175
    12  H   -0.007570  -0.004215   0.003234   0.233075  -0.010935   0.001675
    13  H    0.406929  -0.024881  -0.033487  -0.035045   0.006702   0.000084
    14  C   -0.050485   0.006475  -0.002872   0.337861  -0.031497   0.000079
    15  H    0.006899  -0.000306  -0.000286  -0.034952  -0.004928   0.000018
    16  H   -0.004960   0.000034  -0.000554  -0.037556   0.006930   0.000014
    17  H   -0.003407  -0.000326   0.003749  -0.039395  -0.003970  -0.000004
               7          8          9         10         11         12
     1  C    0.000462  -0.000088   0.000225   0.002354  -0.002049  -0.007570
     2  H   -0.002716   0.000059   0.000330   0.005665  -0.000293  -0.004215
     3  H   -0.000065  -0.000006   0.000008   0.000300  -0.000256   0.003234
     4  C    0.000408   0.000323  -0.000653   0.001827  -0.079492   0.233075
     5  H   -0.000698  -0.000048   0.000002   0.000074  -0.000209  -0.010935
     6  C    0.391920   0.395575   0.412865   0.303851  -0.046175   0.001675
     7  H    0.689463  -0.036528  -0.058495  -0.051778  -0.002337   0.003637
     8  H   -0.036528   0.591289  -0.027453  -0.025748   0.006816  -0.000519
     9  H   -0.058495  -0.027453   0.610755  -0.037848   0.004532   0.000971
    10  O   -0.051778  -0.025748  -0.037848   7.944303   0.072903  -0.026455
    11  O   -0.002337   0.006816   0.004532   0.072903   8.086077   0.186356
    12  H    0.003637  -0.000519   0.000971  -0.026455   0.186356   0.430120
    13  H    0.000081  -0.000027  -0.000012   0.000044   0.001710  -0.003680
    14  C   -0.000162  -0.000010  -0.000007   0.000542   0.001704  -0.015951
    15  H    0.000005   0.000001   0.000005  -0.000037   0.000557  -0.001362
    16  H   -0.000022  -0.000004  -0.000003  -0.000100   0.003008  -0.004286
    17  H    0.000013  -0.000001  -0.000001  -0.000015  -0.000188   0.003270
              13         14         15         16         17
     1  C    0.406929  -0.050485   0.006899  -0.004960  -0.003407
     2  H   -0.024881   0.006475  -0.000306   0.000034  -0.000326
     3  H   -0.033487  -0.002872  -0.000286  -0.000554   0.003749
     4  C   -0.035045   0.337861  -0.034952  -0.037556  -0.039395
     5  H    0.006702  -0.031497  -0.004928   0.006930  -0.003970
     6  C    0.000084   0.000079   0.000018   0.000014  -0.000004
     7  H    0.000081  -0.000162   0.000005  -0.000022   0.000013
     8  H   -0.000027  -0.000010   0.000001  -0.000004  -0.000001
     9  H   -0.000012  -0.000007   0.000005  -0.000003  -0.000001
    10  O    0.000044   0.000542  -0.000037  -0.000100  -0.000015
    11  O    0.001710   0.001704   0.000557   0.003008  -0.000188
    12  H   -0.003680  -0.015951  -0.001362  -0.004286   0.003270
    13  H    0.574129  -0.003617   0.000007   0.004206  -0.000615
    14  C   -0.003617   4.826260   0.412142   0.410334   0.401608
    15  H    0.000007   0.412142   0.569911  -0.026521  -0.032262
    16  H    0.004206   0.410334  -0.026521   0.575459  -0.033074
    17  H   -0.000615   0.401608  -0.032262  -0.033074   0.605306
          Atomic-Atomic Spin Densities.
               1          2          3          4          5          6
     1  C   -0.028362   0.004057   0.003257  -0.022092   0.004077  -0.000352
     2  H    0.004057   0.005970  -0.003866  -0.003440   0.000668  -0.000351
     3  H    0.003257  -0.003866   0.061915  -0.014961  -0.002973   0.000071
     4  C   -0.022092  -0.003440  -0.014961   0.673569   0.002528   0.001118
     5  H    0.004077   0.000668  -0.002973   0.002528  -0.019494  -0.000205
     6  C   -0.000352  -0.000351   0.000071   0.001118  -0.000205  -0.006141
     7  H    0.000819   0.000702  -0.000200  -0.004525   0.001076   0.003228
     8  H   -0.000043  -0.000038   0.000006   0.000124  -0.000009   0.000650
     9  H   -0.000121  -0.000078   0.000014   0.001103  -0.000152  -0.002225
    10  O   -0.002427  -0.001282   0.000315   0.012250  -0.000770   0.001360
    11  O    0.006836   0.000952  -0.000829  -0.089913   0.004271  -0.002189
    12  H   -0.002052   0.000323   0.000847   0.073570   0.001358   0.001197
    13  H    0.003687   0.001179  -0.005970  -0.004484   0.000378  -0.000054
    14  C    0.003793   0.000077  -0.000663  -0.022066   0.003576  -0.000028
    15  H    0.000053   0.000011  -0.000179  -0.003692   0.000965  -0.000003
    16  H    0.000901   0.000073  -0.000867  -0.005167   0.000355  -0.000004
    17  H   -0.000194  -0.000137   0.003931  -0.013984  -0.002702   0.000005
               7          8          9         10         11         12
     1  C    0.000819  -0.000043  -0.000121  -0.002427   0.006836  -0.002052
     2  H    0.000702  -0.000038  -0.000078  -0.001282   0.000952   0.000323
     3  H   -0.000200   0.000006   0.000014   0.000315  -0.000829   0.000847
     4  C   -0.004525   0.000124   0.001103   0.012250  -0.089913   0.073570
     5  H    0.001076  -0.000009  -0.000152  -0.000770   0.004271   0.001358
     6  C    0.003228   0.000650  -0.002225   0.001360  -0.002189   0.001197
     7  H    0.002891  -0.000912  -0.001400  -0.001244   0.003983  -0.003475
     8  H   -0.000912  -0.001767   0.001079   0.000073  -0.000222   0.000082
     9  H   -0.001400   0.001079   0.003410  -0.000491  -0.000351   0.001321
    10  O   -0.001244   0.000073  -0.000491   0.053615  -0.043402   0.010400
    11  O    0.003983  -0.000222  -0.000351  -0.043402   0.604293  -0.058607
    12  H   -0.003475   0.000082   0.001321   0.010400  -0.058607  -0.092202
    13  H    0.000110  -0.000005  -0.000018  -0.000677   0.001444  -0.000928
    14  C    0.000135  -0.000001  -0.000030  -0.000378   0.005242  -0.002531
    15  H    0.000016  -0.000000  -0.000006  -0.000025   0.000706  -0.000451
    16  H    0.000020  -0.000000  -0.000006  -0.000097   0.001181  -0.000804
    17  H   -0.000025   0.000000   0.000003   0.000039  -0.000629   0.000676
              13         14         15         16         17
     1  C    0.003687   0.003793   0.000053   0.000901  -0.000194
     2  H    0.001179   0.000077   0.000011   0.000073  -0.000137
     3  H   -0.005970  -0.000663  -0.000179  -0.000867   0.003931
     4  C   -0.004484  -0.022066  -0.003692  -0.005167  -0.013984
     5  H    0.000378   0.003576   0.000965   0.000355  -0.002702
     6  C   -0.000054  -0.000028  -0.000003  -0.000004   0.000005
     7  H    0.000110   0.000135   0.000016   0.000020  -0.000025
     8  H   -0.000005  -0.000001  -0.000000  -0.000000   0.000000
     9  H   -0.000018  -0.000030  -0.000006  -0.000006   0.000003
    10  O   -0.000677  -0.000378  -0.000025  -0.000097   0.000039
    11  O    0.001444   0.005242   0.000706   0.001181  -0.000629
    12  H   -0.000928  -0.002531  -0.000451  -0.000804   0.000676
    13  H    0.008577   0.001019   0.000085   0.000785  -0.000905
    14  C    0.001019  -0.026674   0.003342   0.004165   0.004265
    15  H    0.000085   0.003342   0.004618   0.001211  -0.003469
    16  H    0.000785   0.004165   0.001211   0.009545  -0.005850
    17  H   -0.000905   0.004265  -0.003469  -0.005850   0.056404
 Mulliken charges and spin densities:
               1          2
     1  C   -0.286400  -0.028163
     2  H    0.110567   0.004821
     3  H    0.100361   0.039848
     4  C   -0.154412   0.579937
     5  H    0.111185  -0.007053
     6  C   -0.061933  -0.003923
     7  H    0.066810   0.001199
     8  H    0.096368  -0.000984
     9  H    0.094777   0.002051
    10  O   -0.189883   0.027257
    11  O   -0.232664   0.432766
    12  H    0.212636  -0.071278
    13  H    0.107472   0.004223
    14  C   -0.292402  -0.026756
    15  H    0.111110   0.003181
    16  H    0.107095   0.005443
    17  H    0.099312   0.037429
 Sum of Mulliken charges =  -0.00000   1.00000
 Mulliken charges and spin densities with hydrogens summed into heavy atoms:
               1          2
     1  C    0.032001   0.020730
     4  C   -0.043226   0.572884
     6  C    0.196022  -0.001656
    10  O   -0.189883   0.027257
    11  O   -0.020028   0.361488
    14  C    0.025115   0.019297
 APT charges:
               1
     1  C   -0.070585
     2  H    0.003597
     3  H   -0.009609
     4  C    0.542541
     5  H   -0.095579
     6  C    0.449651
     7  H   -0.042229
     8  H   -0.010026
     9  H   -0.031130
    10  O   -0.466373
    11  O    0.159996
    12  H   -0.349678
    13  H    0.002968
    14  C   -0.046876
    15  H   -0.003570
    16  H    0.001714
    17  H   -0.034812
 Sum of APT charges =  -0.00000
 APT charges with hydrogens summed into heavy atoms:
               1
     1  C   -0.073628
     4  C    0.446962
     6  C    0.366265
    10  O   -0.466373
    11  O   -0.189682
    14  C   -0.083544
 Electronic spatial extent (au):  <R**2>=            895.9562
 Charge=              0.0000 electrons
 Dipole moment (field-independent basis, Debye):
    X=              0.8512    Y=              1.4231    Z=              1.7500  Tot=              2.4109
 Quadrupole moment (field-independent basis, Debye-Ang):
   XX=            -34.4974   YY=            -40.4831   ZZ=            -39.8717
   XY=             -1.8950   XZ=             -2.4949   YZ=             -0.3737
 Traceless Quadrupole moment (field-independent basis, Debye-Ang):
   XX=              3.7867   YY=             -2.1991   ZZ=             -1.5876
   XY=             -1.8950   XZ=             -2.4949   YZ=             -0.3737
 Octapole moment (field-independent basis, Debye-Ang**2):
  XXX=            -21.6183  YYY=             -2.5587  ZZZ=             -2.4557  XYY=             -2.8243
  XXY=              1.7654  XXZ=              4.4198  XZZ=             -1.4604  YZZ=             -1.1377
  YYZ=              0.0829  XYZ=              0.4749
 Hexadecapole moment (field-independent basis, Debye-Ang**3):
 XXXX=           -800.7273 YYYY=           -240.4285 ZZZZ=           -105.7538 XXXY=             -0.2252
 XXXZ=             -2.2537 YYYX=             -0.9941 YYYZ=             -0.4403 ZZZX=              1.3098
 ZZZY=              1.6899 XXYY=           -174.8555 XXZZ=           -161.7685 YYZZ=            -58.7554
 XXYZ=             -0.5807 YYXZ=              2.6308 ZZXY=              0.1939
 N-N= 2.546011673886D+02 E-N=-1.232014206987D+03  KE= 3.074562292777D+02
  Exact polarizability: 102.808   2.693  63.255   2.875   0.343  54.247
 Approx polarizability:  85.214   1.745  69.942   5.091   1.115  64.174
                          Isotropic Fermi Contact Couplings
        Atom                 a.u.       MegaHertz       Gauss      10(-4) cm-1
     1  C(13)             -0.00842      -9.46231      -3.37639      -3.15629
     2  H(1)               0.00385      17.19423       6.13533       5.73538
     3  H(1)               0.01886      84.28605      30.07536      28.11480
     4  C(13)              0.09291     104.44574      37.26884      34.83935
     5  H(1)              -0.00292     -13.07265      -4.66465      -4.36057
     6  C(13)             -0.00372      -4.18736      -1.49415      -1.39675
     7  H(1)               0.00213       9.49974       3.38974       3.16877
     8  H(1)              -0.00014      -0.62773      -0.22399      -0.20939
     9  H(1)               0.00054       2.42519       0.86537       0.80896
    10  O(17)              0.01528      -9.26365      -3.30550      -3.09002
    11  O(17)              0.05301     -32.13242     -11.46565     -10.71822
    12  H(1)              -0.01890     -84.46445     -30.13901     -28.17431
    13  H(1)               0.00254      11.35166       4.05055       3.78651
    14  C(13)             -0.00946     -10.63723      -3.79563      -3.54820
    15  H(1)               0.00232      10.38339       3.70505       3.46353
    16  H(1)               0.00317      14.15644       5.05137       4.72208
    17  H(1)               0.01746      78.04574      27.84866      26.03326
 --------------------------------------------------------
       Center         ----  Spin Dipole Couplings  ----
                      3XX-RR        3YY-RR        3ZZ-RR
 --------------------------------------------------------
     1   Atom       -0.003877      0.016764     -0.012887
     2   Atom       -0.003237      0.010592     -0.007354
     3   Atom       -0.001407      0.005948     -0.004541
     4   Atom        0.360497     -0.095087     -0.265410
     5   Atom       -0.010966     -0.032660      0.043626
     6   Atom        0.004830     -0.003761     -0.001069
     7   Atom        0.001509     -0.001749      0.000240
     8   Atom        0.003577     -0.000578     -0.002999
     9   Atom        0.006060     -0.004596     -0.001464
    10   Atom        0.196818     -0.093676     -0.103142
    11   Atom        0.435777      0.210889     -0.646666
    12   Atom        0.131667     -0.044302     -0.087365
    13   Atom       -0.004677     -0.000410      0.005087
    14   Atom        0.026396     -0.010965     -0.015431
    15   Atom        0.001750      0.005364     -0.007114
    16   Atom        0.002618     -0.003529      0.000911
    17   Atom        0.008939     -0.002712     -0.006227
 --------------------------------------------------------
                        XY            XZ            YZ
 --------------------------------------------------------
     1   Atom        0.015522     -0.002139     -0.010235
     2   Atom       -0.005233      0.001919     -0.002180
     3   Atom        0.005692      0.001532     -0.002226
     4   Atom        0.429636      0.248857      0.149846
     5   Atom        0.016497     -0.006015      0.009330
     6   Atom       -0.005905     -0.004339      0.002945
     7   Atom       -0.003480     -0.004714      0.004933
     8   Atom       -0.003912     -0.001654      0.001401
     9   Atom       -0.001063     -0.005488      0.000511
    10   Atom        0.253739      0.177771      0.137240
    11   Atom        1.241576      0.615231      0.557314
    12   Atom        0.136747      0.093067      0.049725
    13   Atom        0.002846     -0.001796     -0.008957
    14   Atom       -0.009351     -0.003019      0.002591
    15   Atom       -0.008608      0.002361     -0.001405
    16   Atom       -0.004107     -0.007963      0.005696
    17   Atom       -0.001094      0.000035      0.001884
 --------------------------------------------------------


 ---------------------------------------------------------------------------------
              Anisotropic Spin Dipole Couplings in Principal Axis System
 ---------------------------------------------------------------------------------

       Atom             a.u.   MegaHertz   Gauss  10(-4) cm-1        Axes

              Baa    -0.0171    -2.290    -0.817    -0.764 -0.3534  0.4157  0.8380
     1 C(13)  Bbb    -0.0105    -1.412    -0.504    -0.471  0.8242 -0.2854  0.4891
              Bcc     0.0276     3.701     1.321     1.235  0.4425  0.8636 -0.2418
 
              Baa    -0.0081    -4.328    -1.544    -1.444 -0.3583  0.0086  0.9336
     2 H(1)   Bbb    -0.0046    -2.452    -0.875    -0.818  0.8758  0.3495  0.3330
              Bcc     0.0127     6.780     2.419     2.262 -0.3234  0.9369 -0.1327
 
              Baa    -0.0070    -3.725    -1.329    -1.242 -0.5857  0.3810  0.7153
     3 H(1)   Bbb    -0.0022    -1.162    -0.415    -0.388  0.6660 -0.2768  0.6927
              Bcc     0.0092     4.887     1.744     1.630  0.4619  0.8822 -0.0916
 
              Baa    -0.3536   -47.449   -16.931   -15.827 -0.4959  0.8655 -0.0713
     4 C(13)  Bbb    -0.3523   -47.273   -16.868   -15.769 -0.2832 -0.0835  0.9554
              Bcc     0.7059    94.721    33.799    31.596  0.8209  0.4939  0.2865
 
              Baa    -0.0430   -22.927    -8.181    -7.648 -0.4732  0.8718 -0.1268
     5 H(1)   Bbb    -0.0021    -1.112    -0.397    -0.371  0.8777  0.4790  0.0177
              Bcc     0.0451    24.040     8.578     8.019 -0.0762  0.1029  0.9918
 
              Baa    -0.0069    -0.923    -0.329    -0.308  0.3956  0.9039 -0.1627
     6 C(13)  Bbb    -0.0034    -0.451    -0.161    -0.150  0.4479 -0.0352  0.8934
              Bcc     0.0102     1.374     0.490     0.458  0.8018 -0.4263 -0.4188
 
              Baa    -0.0058    -3.099    -1.106    -1.034 -0.0745  0.7436 -0.6645
     7 H(1)   Bbb    -0.0031    -1.655    -0.590    -0.552  0.7806  0.4581  0.4251
              Bcc     0.0089     4.753     1.696     1.586  0.6205 -0.4870 -0.6146
 
              Baa    -0.0036    -1.945    -0.694    -0.649 -0.0521 -0.4689  0.8817
     8 H(1)   Bbb    -0.0028    -1.478    -0.527    -0.493  0.5532  0.7215  0.4164
              Bcc     0.0064     3.423     1.221     1.142  0.8314 -0.5095 -0.2218
 
              Baa    -0.0047    -2.509    -0.895    -0.837  0.1332  0.9886  0.0697
     9 H(1)   Bbb    -0.0044    -2.321    -0.828    -0.774  0.4529 -0.1233  0.8830
              Bcc     0.0091     4.830     1.724     1.611  0.8815 -0.0861 -0.4642
 
              Baa    -0.2537    18.359     6.551     6.124 -0.3270  0.8580 -0.3960
    10 O(17)  Bbb    -0.1824    13.196     4.709     4.402 -0.5173  0.1882  0.8349
              Bcc     0.4361   -31.554   -11.259   -10.525  0.7909  0.4779  0.3824
 
              Baa    -0.9265    67.041    23.922    22.363 -0.6475  0.3844  0.6580
    11 O(17)  Bbb    -0.9199    66.563    23.751    22.203  0.2994 -0.6657  0.6836
              Bcc     1.8464  -133.604   -47.673   -44.565  0.7008  0.6396  0.3159
 
              Baa    -0.1216   -64.899   -23.158   -21.648 -0.4045  0.1335  0.9048
    12 H(1)   Bbb    -0.1186   -63.298   -22.586   -21.114 -0.3710  0.8803 -0.2957
              Bcc     0.2403   128.197    45.744    42.762  0.8359  0.4553  0.3065
 
              Baa    -0.0076    -4.075    -1.454    -1.359 -0.4444  0.7609  0.4728
    13 H(1)   Bbb    -0.0047    -2.482    -0.886    -0.828  0.8770  0.2620  0.4027
              Bcc     0.0123     6.557     2.340     2.187 -0.1826 -0.5937  0.7837
 
              Baa    -0.0167    -2.236    -0.798    -0.746 -0.0393 -0.4663  0.8838
    14 C(13)  Bbb    -0.0122    -1.640    -0.585    -0.547  0.2427  0.8535  0.4611
              Bcc     0.0289     3.876     1.383     1.293  0.9693 -0.2326 -0.0796
 
              Baa    -0.0078    -4.159    -1.484    -1.387 -0.3430 -0.1250  0.9310
    15 H(1)   Bbb    -0.0049    -2.611    -0.932    -0.871  0.6965  0.6312  0.3413
              Bcc     0.0127     6.770     2.416     2.258 -0.6303  0.7655 -0.1294
 
              Baa    -0.0077    -4.121    -1.470    -1.375  0.2593 -0.6789  0.6869
    16 H(1)   Bbb    -0.0050    -2.653    -0.947    -0.885  0.7019  0.6210  0.3487
              Bcc     0.0127     6.774     2.417     2.259  0.6634 -0.3917 -0.6376
 
              Baa    -0.0071    -3.767    -1.344    -1.256 -0.0296 -0.4037  0.9144
    17 H(1)   Bbb    -0.0020    -1.057    -0.377    -0.353  0.0899  0.9100  0.4047
              Bcc     0.0090     4.824     1.721     1.609  0.9955 -0.0941 -0.0093
 

 ---------------------------------------------------------------------------------

 Calling FoFJK, ICntrl=  10100127 FMM=F ISym2X=0 I1Cent= 0 IOpClX= 1 NMat=1 NMatS=1 NMatT=0.
 ***** Axes restored to original set *****
 -------------------------------------------------------------------
 Center     Atomic                   Forces (Hartrees/Bohr)
 Number     Number              X              Y              Z
 -------------------------------------------------------------------
      1        6          -0.000227405    0.000356016    0.000217490
      2        1           0.000193114   -0.000240548   -0.000163429
      3        1          -0.000000437   -0.000001200    0.000001124
      4        6          -0.000017546   -0.000247221   -0.000085190
      5        1           0.000001387   -0.000000030   -0.000000780
      6        6          -0.000000194    0.000000870   -0.000000561
      7        1           0.000000813    0.000001025    0.000000170
      8        1          -0.000000237    0.000000085   -0.000000225
      9        1           0.000000861    0.000000669   -0.000000204
     10        8          -0.000001895    0.000000257   -0.000000211
     11        8           0.000049502    0.000126000    0.000040870
     12        1           0.000001046    0.000000564   -0.000005215
     13        1           0.000001113   -0.000000212   -0.000001217
     14        6           0.000000416    0.000004632   -0.000004146
     15        1          -0.000000189   -0.000000999    0.000000829
     16        1          -0.000000061    0.000000723    0.000000069
     17        1          -0.000000287   -0.000000631    0.000000623
 -------------------------------------------------------------------
 Cartesian Forces:  Max     0.000356016 RMS     0.000092503
 FormGI is forming the generalized inverse of G from B-inverse, IUseBI=4.

 GradGradGradGradGradGradGradGradGradGradGradGradGradGradGradGradGradGrad
 Berny optimization.
 Internal  Forces:  Max     0.000298662 RMS     0.000062375
 Search for a saddle point.
 Step number   1 out of a maximum of  102
 All quantities printed in internal units (Hartrees-Bohrs-Radians)
 Swapping is turned off.
 Second derivative matrix not updated -- analytic derivatives used.
 ITU=  0
     Eigenvalues ---   -0.07084   0.00010   0.00147   0.00177   0.00625
     Eigenvalues ---    0.01663   0.02167   0.02398   0.03076   0.04115
     Eigenvalues ---    0.04291   0.04425   0.04458   0.04504   0.05088
     Eigenvalues ---    0.08388   0.08499   0.08535   0.11040   0.11933
     Eigenvalues ---    0.12268   0.13045   0.13856   0.14476   0.15191
     Eigenvalues ---    0.16017   0.16598   0.17624   0.18001   0.18428
     Eigenvalues ---    0.25461   0.30013   0.31281   0.31870   0.32791
     Eigenvalues ---    0.32965   0.33465   0.33927   0.34105   0.34199
     Eigenvalues ---    0.34413   0.34749   0.34921   0.35491   0.40349
 Eigenvectors required to have negative eigenvalues:
                          R13       R6        R12       A20       D16
   1                    0.69527  -0.66375  -0.15236   0.07486   0.05798
                          D9        D1        D14       D6        D18
   1                    0.05743  -0.05600  -0.05598   0.05150   0.05032
 RFO step:  Lambda0=2.646646236D-10 Lambda=-1.02798050D-04.
 Linear search not attempted -- option 19 set.
 Iteration  1 RMS(Cart)=  0.14159055 RMS(Int)=  0.01774505
 Iteration  2 RMS(Cart)=  0.04858701 RMS(Int)=  0.00095237
 Iteration  3 RMS(Cart)=  0.00155759 RMS(Int)=  0.00015039
 Iteration  4 RMS(Cart)=  0.00000144 RMS(Int)=  0.00015039
 Iteration  5 RMS(Cart)=  0.00000000 RMS(Int)=  0.00015039
 Variable       Old X    -DE/DX   Delta X   Delta X   Delta X     New X
                                 (Linear)    (Quad)   (Total)
    R1        2.05692   0.00000   0.00000  -0.00084  -0.00084   2.05608
    R2        2.06905   0.00000   0.00000   0.00094   0.00094   2.06998
    R3        2.84037  -0.00001   0.00000  -0.00042  -0.00042   2.83995
    R4        2.05872  -0.00000   0.00000  -0.00010  -0.00010   2.05862
    R5        2.05720   0.00000   0.00000  -0.00043  -0.00043   2.05677
    R6        2.52693  -0.00000   0.00000   0.00222   0.00222   2.52915
    R7        2.84271   0.00000   0.00000   0.00049   0.00049   2.84320
    R8        2.06271  -0.00000   0.00000   0.00026   0.00026   2.06298
    R9        2.05638   0.00000   0.00000   0.00000   0.00000   2.05638
   R10        2.05723  -0.00000   0.00000   0.00004   0.00004   2.05728
   R11        2.68347  -0.00000   0.00000  -0.00055  -0.00055   2.68292
   R12        2.66097   0.00000   0.00000  -0.00042  -0.00043   2.66054
   R13        2.24370   0.00001   0.00000  -0.00065  -0.00065   2.24305
   R14        2.05703  -0.00000   0.00000  -0.00008  -0.00008   2.05694
   R15        2.05902   0.00000   0.00000  -0.00019  -0.00019   2.05883
   R16        2.06897  -0.00000   0.00000  -0.00011  -0.00011   2.06885
    A1        1.88148  -0.00009   0.00000  -0.00436  -0.00435   1.87713
    A2        1.95246  -0.00000   0.00000   0.00567   0.00565   1.95812
    A3        1.88244   0.00009   0.00000   0.00354   0.00351   1.88595
    A4        1.92901  -0.00005   0.00000  -0.00524  -0.00523   1.92378
    A5        1.87980  -0.00000   0.00000  -0.00226  -0.00226   1.87755
    A6        1.93599   0.00005   0.00000   0.00238   0.00236   1.93835
    A7        1.99045   0.00000   0.00000   0.00332   0.00310   1.99355
    A8        1.80922   0.00004   0.00000   0.00648   0.00639   1.81561
    A9        2.04162   0.00000   0.00000  -0.00588  -0.00611   2.03551
   A10        1.77255   0.00008   0.00000   0.00686   0.00683   1.77939
   A11        1.98818  -0.00001   0.00000   0.00196   0.00238   1.99056
   A12        1.81826  -0.00012   0.00000  -0.01200  -0.01191   1.80635
   A13        1.91795  -0.00000   0.00000  -0.00006  -0.00006   1.91789
   A14        1.91559   0.00000   0.00000  -0.00051  -0.00051   1.91508
   A15        1.93487  -0.00000   0.00000  -0.00019  -0.00018   1.93469
   A16        1.92484   0.00000   0.00000   0.00021   0.00020   1.92504
   A17        1.83849   0.00000   0.00000   0.00023   0.00023   1.83871
   A18        1.93099  -0.00000   0.00000   0.00035   0.00035   1.93135
   A19        1.88012   0.00000   0.00000  -0.00030  -0.00031   1.87981
   A20        1.81972   0.00000   0.00000   0.00127   0.00126   1.82099
   A21        1.95116  -0.00000   0.00000  -0.00029  -0.00029   1.95087
   A22        1.93598   0.00000   0.00000  -0.00064  -0.00064   1.93533
   A23        1.92898  -0.00000   0.00000   0.00016   0.00016   1.92914
   A24        1.89124   0.00000   0.00000  -0.00105  -0.00105   1.89019
   A25        1.87786   0.00000   0.00000   0.00033   0.00033   1.87819
   A26        1.87593   0.00000   0.00000   0.00158   0.00158   1.87751
   A27        3.16823   0.00030   0.00000   0.02247   0.02239   3.19061
   A28        3.07701  -0.00009   0.00000  -0.01255  -0.01267   3.06434
    D1       -0.93807   0.00013   0.00000   0.12385   0.12393  -0.81414
    D2        0.97354   0.00025   0.00000   0.13689   0.13689   1.11043
    D3        2.96303   0.00014   0.00000   0.12359   0.12354   3.08657
    D4        1.15862  -0.00002   0.00000   0.11853   0.11860   1.27722
    D5        3.07024   0.00010   0.00000   0.13158   0.13156  -3.08139
    D6       -1.22346  -0.00001   0.00000   0.11828   0.11821  -1.10525
    D7       -3.04077  -0.00002   0.00000   0.11384   0.11391  -2.92687
    D8       -1.12916   0.00010   0.00000   0.12689   0.12687  -1.00229
    D9        0.86033  -0.00001   0.00000   0.11359   0.11352   0.97385
   D10       -0.44863  -0.00005   0.00000   0.26187   0.26182  -0.18681
   D11        1.62239   0.00004   0.00000   0.27726   0.27804   1.90043
   D12       -2.58075   0.00003   0.00000   0.27635   0.27561  -2.30514
   D13       -3.04752   0.00001   0.00000   0.00804   0.00801  -3.03950
   D14       -0.93448   0.00001   0.00000   0.00605   0.00602  -0.92847
   D15        1.14444   0.00001   0.00000   0.00771   0.00768   1.15212
   D16        0.85263   0.00001   0.00000   0.00721   0.00731   0.85994
   D17        2.96566   0.00001   0.00000   0.00521   0.00532   2.97098
   D18       -1.23860   0.00001   0.00000   0.00688   0.00698  -1.23162
   D19       -1.06310  -0.00002   0.00000   0.00506   0.00498  -1.05811
   D20        1.04994  -0.00002   0.00000   0.00306   0.00299   1.05292
   D21        3.12886  -0.00002   0.00000   0.00472   0.00465   3.13351
   D22        1.14084   0.00000   0.00000  -0.00325  -0.00325   1.13759
   D23       -3.06855   0.00000   0.00000  -0.00329  -0.00329  -3.07184
   D24       -0.98860   0.00000   0.00000  -0.00272  -0.00273  -0.99132
   D25       -1.60317   0.00001   0.00000  -0.00064  -0.00064  -1.60381
         Item               Value     Threshold  Converged?
 Maximum Force            0.000299     0.000450     YES
 RMS     Force            0.000062     0.000300     YES
 Maximum Displacement     0.529356     0.001800     NO 
 RMS     Displacement     0.185611     0.001200     NO 
 Predicted change in Energy=-6.990201D-05
 GradGradGradGradGradGradGradGradGradGradGradGradGradGradGradGradGradGrad

                          Input orientation:                          
 ---------------------------------------------------------------------
 Center     Atomic      Atomic             Coordinates (Angstroms)
 Number     Number       Type             X           Y           Z
 ---------------------------------------------------------------------
      1          6           0        1.559417   -0.550925    0.976283
      2          1           0        0.963317   -1.445134    1.146177
      3          1           0        2.614070   -0.843040    1.023732
      4          6           0        1.256865    0.089615   -0.349118
      5          1           0        1.220935   -0.607541   -1.184156
      6          6           0       -2.194798   -0.967915    0.779625
      7          1           0       -1.494148   -1.668826    0.321828
      8          1           0       -2.561020   -1.372399    1.721131
      9          1           0       -3.024864   -0.781660    0.100296
     10          8           0       -1.544085    0.247062    1.120313
     11          8           0       -1.129665    0.861151   -0.076903
     12          1           0       -0.024169    0.462678   -0.244216
     13          1           0        1.372363    0.140554    1.797017
     14          6           0        1.973452    1.376654   -0.655263
     15          1           0        1.622285    1.823405   -1.583648
     16          1           0        1.832617    2.100007    0.147177
     17          1           0        3.049355    1.202081   -0.757853
 ---------------------------------------------------------------------
                    Distance matrix (angstroms):
                    1          2          3          4          5
     1  C    0.000000
     2  H    1.088030   0.000000
     3  H    1.095388   1.761391   0.000000
     4  C    1.502837   2.162760   2.143961   0.000000
     5  H    2.187527   2.489655   2.621270   1.088396   0.000000
     6  C    3.782418   3.214932   4.816679   3.782382   3.956455
     7  H    3.316968   2.601677   4.248770   3.333220   3.281156
     8  H    4.267039   3.571668   5.248633   4.582539   4.829998
     9  H    4.672925   4.176081   5.714375   4.392528   4.439250
    10  O    3.207687   3.025105   4.299757   3.166913   3.699494
    11  O    3.214704   3.345960   4.258077   2.522875   2.984692
    12  H    2.241596   2.558919   3.205136   1.338368   1.891861
    13  H    1.089374   1.762190   1.762743   2.149844   3.077331
    14  C    2.559087   3.496862   2.855951   1.504557   2.187017
    15  H    3.492083   4.309238   3.859015   2.159543   2.496033
    16  H    2.790967   3.784403   3.168682   2.149296   3.078542
    17  H    2.881002   3.870999   2.747005   2.148875   2.607602
                    6          7          8          9         10
     6  C    0.000000
     7  H    1.091680   0.000000
     8  H    1.088191   1.784414   0.000000
     9  H    1.088664   1.783040   1.786402   0.000000
    10  O    1.419741   2.076223   2.004444   2.071572   0.000000
    11  O    2.283338   2.587010   3.204755   2.514360   1.407897
    12  H    2.794007   2.650387   3.696716   3.266686   2.053917
    13  H    3.871489   3.696880   4.215007   4.802598   2.995821
    14  C    4.993017   4.717404   5.810850   5.496577   4.098990
    15  H    5.286459   5.053580   6.215688   5.587309   4.452209
    16  H    5.102176   5.030106   5.817128   5.648125   3.972721
    17  H    5.879954   5.481901   6.652039   6.447308   5.053638
                   11         12         13         14         15
    11  O    0.000000
    12  H    1.186969   0.000000
    13  H    3.207956   2.494132   0.000000
    14  C    3.198372   2.234905   2.811215   0.000000
    15  H    3.281683   2.521204   3.784620   1.088487   0.000000
    16  H    3.218709   2.506329   2.602549   1.089488   1.765362
    17  H    4.247839   3.202669   3.235198   1.094791   1.761962
                   16         17
    16  H    0.000000
    17  H    1.762328   0.000000
 Stoichiometry    C4H11O2(2)
 Framework group  C1[X(C4H11O2)]
 Deg. of freedom    45
 Full point group                 C1      NOp   1
 Largest Abelian subgroup         C1      NOp   1
 Largest concise Abelian subgroup C1      NOp   1
                         Standard orientation:                         
 ---------------------------------------------------------------------
 Center     Atomic      Atomic             Coordinates (Angstroms)
 Number     Number       Type             X           Y           Z
 ---------------------------------------------------------------------
      1          6           0        1.111602    1.449740   -0.233874
      2          1           0        0.281422    2.019904    0.177857
      3          1           0        2.008669    2.074333   -0.162951
      4          6           0        1.323896    0.151243    0.492316
      5          1           0        1.316974    0.239955    1.577069
      6          6           0       -2.452066    0.339485    0.377916
      7          1           0       -1.865973    0.889978    1.116306
      8          1           0       -3.132265    1.016916   -0.134505
      9          1           0       -3.010135   -0.455199    0.870081
     10          8           0       -1.614506   -0.191692   -0.637962
     11          8           0       -0.771591   -1.148481   -0.041119
     12          1           0        0.198674   -0.536250    0.263276
     13          1           0        0.912451    1.278930   -1.291181
     14          6           0        2.402088   -0.751811   -0.042181
     15          1           0        2.420313   -1.709190    0.475408
     16          1           0        2.258875   -0.940522   -1.105601
     17          1           0        3.386656   -0.289409    0.081818
 ---------------------------------------------------------------------
 Rotational constants (GHZ):           5.5494329           1.6855307           1.4364026
 Standard basis: CC-pVTZ (5D, 7F)
 There are   375 symmetry adapted cartesian basis functions of A   symmetry.
 There are   334 symmetry adapted basis functions of A   symmetry.
   334 basis functions,   499 primitive gaussians,   375 cartesian basis functions
    26 alpha electrons       25 beta electrons
       nuclear repulsion energy       255.3652690930 Hartrees.
 NAtoms=   17 NActive=   17 NUniq=   17 SFac= 1.00D+00 NAtFMM=   60 NAOKFM=F Big=F
 Integral buffers will be    131072 words long.
 Raffenetti 2 integral format.
 Two-electron integral symmetry is turned on.
 Nuclear repulsion after empirical dispersion term =      255.3571317905 Hartrees.
 One-electron integrals computed using PRISM.
 NBasis=   334 RedAO= T EigKep=  7.62D-04  NBF=   334
 NBsUse=   334 1.00D-06 EigRej= -1.00D+00 NBFU=   334
 Initial guess from the checkpoint file:  "/localscratch/353444/Gau-67126.chk"
 B after Tr=    -0.000000    0.000000    0.000000
         Rot=    0.999521    0.030277   -0.004432   -0.004720 Ang=   3.55 deg.
 Initial guess <Sx>= 0.0000 <Sy>= 0.0000 <Sz>= 0.5000 <S**2>= 0.7684 S= 0.5091
 ExpMin= 1.03D-01 ExpMax= 1.53D+04 ExpMxC= 5.22D+02 IAcc=3 IRadAn=         5 AccDes= 0.00D+00
 Harris functional with IExCor=  419 and IRadAn=       5 diagonalized for initial guess.
 HarFok:  IExCor=  419 AccDes= 0.00D+00 IRadAn=         5 IDoV= 1 UseB2=F ITyADJ=14
 ICtDFT=  3500011 ScaDFX=  1.000000  1.000000  1.000000  1.000000
 FoFCou: FMM=F IPFlag=           0 FMFlag=      100000 FMFlg1=           0
         NFxFlg=           0 DoJE=T BraDBF=F KetDBF=T FulRan=T
         wScrn=  0.000000 ICntrl=       500 IOpCl=  0 I1Cent=   200000004 NGrid=           0
[...]
   zx         0.133800D+02      0.198272D+01      0.220607D+01
   zy        -0.651272D+01     -0.965085D+00     -0.107380D+01
   zz         0.651933D+02      0.966066D+01      0.107489D+02

 ----------------------------------------------------------------------
 1\1\GINC-N144\Freq\UB2PLYPD3-FC\CC-pVTZ\C4H11O2(2)\ROOT\25-Jun-2019\0\
 \#N Geom=AllCheck Guess=TCheck SCRF=Check GenChk UB2PLYPD3(FC)/CC-pVTZ
  Freq\\Title Card Required\\0,2\C,1.5499506197,-0.581935454,0.94179577
 58\H,0.960780372,-1.4870693028,1.0757531882\H,2.6067166599,-0.86297474
 47,1.0020999694\C,1.2625600362,0.0890154872,-0.3723328923\H,1.23471807
 76,-0.5883750437,-1.2237543874\C,-2.1981112919,-0.944853316,0.81753059
 21\H,-1.5223053217,-1.6623840205,0.3491892828\H,-2.5383333886,-1.32812
 62478,1.7774621951\H,-3.0478961593,-0.758681167,0.1629630628\O,-1.5213
 920818,0.2674176639,1.1158617907\O,-1.1281040019,0.8498855689,-0.10415
 95184\H,-0.0197172088,0.4563998023,-0.274407361\H,1.339090477,0.085977
 4422,1.776333514\C,1.9819809573,1.3827082846,-0.6407981531\H,1.6388329
 63,1.8522558966,-1.5608550525\H,1.8344672376,2.0863833432,0.1778190076
 \H,3.0586910538,1.2101238078,-0.7380820139\\Version=ES64L-G16RevB.01\S
 tate=2-A\HF=-308.7953973\MP2=-309.1884179\PUHF=-308.8016043\PMP2-0=-30
 9.1889293\S2=0.768406\S2-1=0.742699\S2A=0.750152\RMSD=1.023e-09\RMSF=1
 .652e-06\ZeroPoint=0.1418158\Thermal=0.1510358\Dipole=0.42455,-0.74438
 47,-0.0872965\DipoleDeriv=-0.1807983,0.0370959,-0.0193613,0.0227895,-0
 .0014469,0.053456,0.0572208,0.0522621,-0.040148,0.0301258,-0.112199,0.
 0198255,-0.0750347,-0.0800355,0.0381036,-0.0059943,0.0284975,0.0258556
 ,-0.1359582,0.0570698,-0.0244941,0.0719681,0.054456,0.0144286,-0.08807
 56,0.0277233,0.0602547,1.2766849,0.0419333,-0.2676283,-0.2016553,0.180
 6871,0.0169698,0.0345682,-0.0369993,0.1659964,-0.1202779,-0.0132511,0.
 056449,0.0013566,-0.067561,-0.0731645,-0.0250562,-0.0519566,-0.0895805
 ,0.5880454,0.0909994,-0.0419165,0.4102652,0.4923947,-0.0457513,0.09909
 22,0.0633405,0.2718373,-0.0744544,0.1061906,0.0735723,-0.0364896,-0.07
 21379,-0.0095593,0.0024263,-0.0806503,0.022914,0.02342,-0.0459435,0.03
 87114,-0.084378,0.0154036,0.0422125,0.0628853,0.0562196,-0.0699824,-0.
 1186985,-0.0260353,-0.0510899,0.0154979,0.009422,0.0539241,-0.1559477,
 -0.0241915,0.0116198,-0.5565906,-0.0330351,0.0150105,-0.6121305,-0.378
 4162,0.0843878,0.7687557,-0.0424859,-0.4374943,0.6076501,-0.0746967,-0
 .2068325,0.0819098,-0.2434032,-0.0778428,-0.9728708,-0.0010436,0.08610
 92,-1.1818401,0.0095249,0.2841388,0.4060102,0.0968547,-0.0704706,0.232
 5605,0.0230347,0.0376065,0.0896305,0.0233928,0.0357179,0.0101276,-0.01
 75033,-0.0817015,-0.0109455,-0.0451228,-0.0332883,-0.201814,-0.1098753
 ,0.0875042,0.0916942,0.0138975,-0.0061583,0.0106146,0.0378604,0.041944
 9,0.062119,0.0267563,-0.0659938,-0.0157737,0.0015104,0.0750577,-0.0343
 147,0.0862503,-0.0723924,0.0742223,0.0262417,0.0273219,-0.0285557,-0.0
 18172,-0.0515344,0.0089028,-0.0995369,-0.0481374,-0.1814661,-0.0041689
 ,0.039065,-0.0576016,0.0140499,0.0376423,0.0161786,0.0067984,0.0668849
 \Polar=98.9422701,5.4666376,60.6444849,-10.2394618,-6.3713208,60.18771
 03\PG=C01 [X(C4H11O2)]\NImag=1\\0.52765656,0.02590355,0.56036658,-0.01
 976817,0.03355506,0.49845977,-0.12608064,-0.12326958,0.01687389,0.1354
 7316,-0.12169437,-0.23125800,0.02369388,0.13401158,0.25087069,0.015816
 28,0.02265643,-0.05199910,-0.01644961,-0.02953372,0.05492782,-0.279107
 76,0.05943849,-0.00600513,-0.01707869,0.00485674,-0.00034712,0.3073705
 3,0.06226148,-0.06066192,0.00124846,-0.02674410,0.00746084,-0.00132165
 ,-0.06907424,0.06331119,-0.01341038,0.00290771,-0.04228090,0.00315813,
 -0.00127544,-0.00066150,0.01264508,-0.00519628,0.04833063,-0.05998459,
 0.00111720,-0.02161476,0.00347845,-0.00755568,0.01795474,-0.00777297,0
 .01335268,-0.02734358,0.21437609,0.00418138,-0.10675941,0.04681583,0.0
 0884469,-0.01252591,0.02584044,0.00368047,-0.00546625,0.00945721,0.076
 05367,0.49590276,-0.03023957,0.04970994,-0.18239706,-0.00090896,0.0004
 3440,-0.00188502,-0.00479519,0.00313746,-0.00631583,0.02251563,0.04500
 653,0.54127213,0.00264960,-0.00577932,-0.00842141,0.00001755,0.0006679
 5,0.00026097,0.00027708,-0.00016926,0.00123640,-0.02820249,-0.00202916
 ,0.00396507,0.03093085,-0.00013894,0.01100637,0.01382201,-0.00026332,0
 .00083742,-0.00094476,0.00008560,0.00010022,-0.00051160,-0.01137238,-0
 .15572748,-0.13128325,0.01013953,0.16570943,0.00221128,-0.01779322,-0.
 01926962,0.00052044,0.00019213,0.00115343,-0.00043385,-0.00001766,0.00
 035779,-0.00744892,-0.12867568,-0.21505505,0.00523933,0.13859314,0.230
 46926,0.00078141,-0.00007920,-0.00054800,-0.00060672,0.00018318,-0.000
 01132,0.00023074,-0.00013329,0.00028276,-0.00553422,0.00022744,-0.0007
 4438,0.00124642,-0.00017571,0.00013809,0.55032125,0.00210464,0.0007311
 0,-0.00102757,0.00021095,-0.00042511,0.00061347,0.00009815,-0.00075929
 ,0.00064985,-0.01192077,0.00360461,0.00053018,0.00181842,-0.00042213,-
 0.00043465,-0.05711544,0.47339698,0.00061423,0.00036233,-0.00042909,0.
 00005804,-0.00027645,0.00043506,-0.00008373,-0.00035307,0.00018409,-0.
 00195342,0.00074191,0.00036748,0.00028487,-0.00010634,-0.00014040,-0.0
 1286067,-0.02474538,0.62138588,-0.00045390,-0.00005492,-0.00007502,-0.
 00022882,-0.00001058,-0.00011983,0.00005326,-0.00004111,-0.00008486,0.
 00005051,0.00027078,0.00028086,-0.00015229,-0.00005397,-0.00006668,-0.
 16353747,0.10862818,0.07303286,0.16835099,-0.00047898,-0.00026825,0.00
 017685,-0.00013078,0.00035533,-0.00022580,0.00008491,0.00024394,-0.000
 17073,0.00265178,-0.00048890,0.00020431,-0.00064364,0.00012691,0.00011
 294,0.10516616,-0.14571245,-0.06308885,-0.11156700,0.17183625,-0.00038
 878,-0.00046720,0.00010870,-0.00018554,0.00031216,-0.00007186,0.000110
 32,0.00023587,-0.00014648,0.00161549,-0.00048877,0.00028751,-0.0000866
 8,0.00005216,-0.00003692,0.06979426,-0.06729699,-0.09821614,-0.0755639
 0,0.08091368,0.10029317,-0.00022784,-0.00006240,0.00003360,0.00003676,
 0.00007691,0.00011727,0.00001102,0.00005511,-0.00009972,0.00063012,-0.
 00014978,0.00006961,-0.00006717,0.00002762,-0.00006469,-0.07472886,-0.
 02596911,0.06796712,-0.00522194,-0.00710383,0.01791749,0.07750152,-0.0
 0036597,0.00004445,0.00009559,-0.00002676,0.00004366,-0.00008626,0.000
 00370,0.00006619,-0.00012017,0.00090143,-0.00020818,-0.00010134,-0.000
 21408,0.00004587,0.00004375,-0.02475376,-0.07816368,0.07164649,0.00581
 802,0.00955541,-0.01808274,0.03626463,0.09042568,0.00008911,0.00002674
 ,-0.00001462,-0.00000893,0.00000558,-0.00007359,-0.00000264,-0.0000106
 7,0.00002443,-0.00030128,0.00006049,-0.00004631,-0.00001124,-0.0000005
 6,0.00003393,0.07394793,0.08200427,-0.26651258,0.00212871,0.00459916,-
 0.00983458,-0.08064224,-0.08906577,0.28126423,-0.00011256,0.00012816,0
 .00000829,0.00008842,-0.00012579,0.00007529,-0.00007865,-0.00003237,-0
 .00004813,0.00114155,-0.00018387,-0.00002983,-0.00022804,0.00005219,0.
 00000158,-0.20716498,0.04574254,-0.11875774,-0.01488028,0.00610450,-0.
 01297316,0.01043739,-0.00121795,0.00702410,0.22485514,-0.00009849,-0.0
 0036978,0.00007391,-0.00004785,0.00020171,-0.00006115,0.00002560,0.000
 15285,-0.00003524,0.00086505,-0.00026401,0.00009536,-0.00013858,0.0000
 2615,0.00004201,0.05035182,-0.06081443,0.03932129,0.01530680,-0.002070
 40,0.01264717,0.00890237,-0.00114541,0.00479023,-0.04074945,0.06860817
 ,-0.00028902,-0.00012744,0.00012244,-0.00000944,0.00007651,-0.00011068
 ,0.00000639,0.00011877,-0.00007434,0.00141587,-0.00048828,-0.00011684,
 -0.00017225,0.00002798,0.00003590,-0.12170240,0.03258915,-0.14654467,0
 .01214035,-0.00315432,0.00922829,-0.02166246,0.00539474,-0.01410968,0.
 13732699,-0.03076587,0.15386003,-0.00054529,-0.00033503,0.00085066,-0.
 00008138,-0.00017834,-0.00039997,-0.00073696,0.00026955,0.00000549,0.0
 0866014,-0.00028781,0.00092070,-0.00216488,0.00020665,0.00010358,-0.09
 462175,-0.05841115,-0.03869564,0.01376700,0.00595001,0.00291589,-0.006
 80591,-0.01115288,-0.00143959,-0.01551307,-0.03663907,-0.00831106,0.16
 143700,-0.00441947,0.00023541,0.00147354,0.00004025,0.00067647,-0.0002
 5730,0.00010702,0.00073262,-0.00191860,0.02446992,-0.00622617,-0.00072
 833,-0.00295516,0.00085169,0.00012934,-0.05519743,-0.16392853,-0.07159
 011,-0.01992304,-0.03860787,-0.00968416,-0.00798294,-0.01395292,-0.000
 90353,-0.01299296,-0.00800985,-0.00401572,0.13221069,0.29133477,0.0053
 7570,-0.00071310,-0.00170378,-0.00005561,-0.00101254,0.00020000,-0.000
 00240,-0.00092413,0.00267787,-0.03721749,0.00748797,-0.00089946,0.0055
 3484,-0.00098635,0.00014840,-0.02013448,-0.03958017,-0.10006669,-0.008
 54373,-0.01597272,-0.00304584,0.01666648,0.02923456,0.00494914,-0.0109
 7761,-0.02237839,-0.00444931,-0.02417433,0.00717469,0.30151872,0.00919
 379,-0.00316165,0.00119906,-0.00017632,-0.00015879,-0.00013853,-0.0002
 3834,-0.00072090,0.00185344,-0.13763886,0.03751269,0.00770826,0.009087
 49,-0.00134149,0.00061198,-0.01264545,-0.02137342,0.02950549,0.0023779
 9,0.00398348,-0.00143644,-0.00137790,-0.00488511,-0.00108977,0.0033462
 1,0.00336926,0.00308553,-0.04621592,-0.01388388,0.00770645,0.09681356,
 0.00054070,0.00049470,-0.00199996,-0.00013580,-0.00033800,0.00009660,-
 0.00017896,-0.00023605,0.00095736,0.02792492,-0.00539463,-0.00343916,-
 0.00045606,0.00010244,0.00048867,-0.01383941,-0.02499987,0.04605181,0.
 00079832,0.00430586,0.00163066,-0.00415042,-0.00607825,-0.00129066,0.0
 0267064,0.00347653,-0.00005877,-0.02384991,-0.07404720,0.04981208,0.00
 617251,0.12663012,-0.00911977,0.00130105,0.00244342,0.00020948,0.00098
 044,-0.00032729,0.00064807,0.00107225,-0.00305843,0.06145338,-0.014545
 70,0.00285567,-0.00725297,0.00205303,0.00033418,0.01311882,0.02004712,
 -0.00985157,-0.00298700,-0.00412866,0.00078476,-0.00030999,0.00091386,
 0.00421304,-0.00204620,-0.00418274,0.00204457,0.04203246,0.07755094,-0
 .17833617,-0.01400763,-0.10916597,0.18851726,-0.02433531,0.00811281,-0
 .00359052,0.00089316,0.00016441,0.00036180,0.00216956,0.00151758,-0.00
 363147,0.10970621,-0.03249652,-0.00399316,-0.01589034,0.00338775,-0.00
 027334,0.00570785,0.01424805,0.00049061,-0.00018142,-0.00378555,-0.001
 43020,0.00001713,-0.00019740,0.00021301,-0.00168814,-0.00108582,-0.001
 59066,-0.01554317,-0.03500053,0.05918453,0.06516826,0.00422099,-0.0727
 3307,-0.09725070,0.01317314,-0.00477317,0.00244591,0.00004926,-0.00038
 084,0.00003780,-0.00025005,-0.00055967,0.00217847,-0.04135068,-0.01206
 401,0.00192647,0.01280188,-0.00423624,-0.00197809,-0.00471078,-0.00193
 265,0.00244205,0.00082106,0.00061634,0.00006767,0.00012766,-0.00072229
 ,-0.00024006,0.00065321,0.00011122,0.00030521,-0.00837112,0.01110100,-
 0.01287218,-0.00691210,-0.02500319,0.02926051,0.04446055,0.03915698,-0
 .00926981,0.00421709,-0.00291318,-0.00004719,-0.00017959,0.00018216,-0
 .00161683,0.00112749,-0.00147307,-0.02166856,0.00572233,-0.02341041,0.
 01261440,-0.00479672,-0.00227089,-0.00132603,-0.00305352,-0.00057894,-
 0.00004099,0.00069661,0.00079071,0.00007531,0.00008880,0.00007508,0.00
 031947,0.00043973,0.00008084,0.02591444,0.00321359,-0.02176792,-0.0338
 9152,0.01576395,-0.00934533,0.02278931,-0.02444701,0.06130606,-0.05525
 188,0.03175670,0.04237347,0.00337821,-0.01103704,-0.01492758,-0.006335
 80,0.02019286,0.02445213,0.00008038,-0.00470342,-0.00800861,0.00039109
 ,0.00092493,-0.00190118,-0.00022662,-0.00069409,-0.00007469,0.00003031
 ,0.00014110,0.00006723,-0.00002377,0.00003266,-0.00000662,0.00004936,0
 .00012297,0.00009904,0.00005253,0.00025804,0.00013807,0.00007069,0.000
 21228,0.00026695,0.00071996,-0.00060401,-0.00074643,0.05734602,0.03076
 847,-0.15193260,-0.12442075,0.00664043,-0.01585429,-0.01988614,0.00106
 317,-0.00536487,-0.00547644,-0.00320836,0.01069876,0.01116058,0.001153
 83,-0.00061831,0.00321194,-0.00002196,-0.00020192,-0.00019939,0.000011
 83,0.00004360,0.00003910,-0.00007343,-0.00000281,0.00002600,-0.0000253
 0,0.00003040,0.00005240,0.00055534,-0.00033378,0.00057332,0.00008116,0
 .00014649,-0.00058663,-0.00053683,0.00044263,0.00026894,-0.03648446,0.
 16157151,0.04090939,-0.12434260,-0.19812948,-0.00147886,0.00299071,0.0
 0351782,-0.00016289,0.00130250,0.00132276,0.00387329,-0.01869858,-0.02
 507593,-0.00081072,0.00348231,-0.00415984,0.00003765,-0.00012854,-0.00
 001195,-0.00005732,0.00002579,-0.00000976,-0.00001000,0.00001334,0.000
 00639,0.00002377,0.00005480,0.00001319,0.00003680,-0.00062463,0.001117
 74,0.00017240,0.00082863,-0.00085020,0.00044579,-0.00050477,-0.0003418
 5,-0.04254724,0.13551162,0.22051367,0.00683730,0.00766420,-0.00014597,
 0.00025895,0.00160167,-0.00274120,0.00053721,-0.00018018,0.00006689,-0
 .08521344,-0.06755713,0.00782077,0.00217565,0.00178628,0.00104163,0.00
 068569,0.00270875,0.00063593,0.00004335,-0.00042327,-0.00037448,-0.000
 18589,-0.00026377,0.00009265,-0.00021621,-0.00019027,-0.00034028,-0.00
 192085,-0.00450259,0.00607218,0.01250469,-0.00150167,-0.00871748,-0.03
 193113,-0.00641900,0.00697994,-0.00043866,-0.00028905,-0.00048124,0.50
 815733,-0.00896660,-0.01493391,0.00663183,0.00048807,0.00023397,0.0015
 6635,-0.00050652,0.00114690,-0.00136340,-0.05696076,-0.17495026,0.0173
 5756,-0.01314024,-0.01498113,0.00516282,-0.00053410,-0.00128723,-0.000
 30458,-0.00000542,0.00021198,0.00022203,0.00010792,0.00015925,-0.00004
 372,0.00011052,0.00011420,0.00015226,0.00113843,0.00205207,-0.00294531
 ,-0.00040596,-0.00083566,0.00279588,0.00058590,-0.00051692,-0.00015936
 ,0.00011243,0.00141592,-0.00094458,-0.03323240,0.50368624,0.01715781,0
 .02726066,-0.00499245,-0.00107029,0.00335108,-0.00528138,0.00033018,-0
 .00069650,0.00133887,0.00579648,0.01743440,-0.08871497,-0.01419103,-0.
 02110064,0.00665994,0.00003370,-0.00011625,-0.00005020,-0.00005941,0.0
 0001993,-0.00011703,-0.00005979,0.00003352,0.00003798,0.00002546,-0.00
 004521,0.00000665,0.00026962,0.00019009,-0.00024475,-0.00158804,0.0001
 0913,0.00037886,0.00355981,0.00095035,-0.00054656,0.00055437,0.0002926
 6,0.00119451,0.01352195,0.00827450,0.57885219,-0.00156977,-0.00291407,
 -0.00018924,0.00039787,-0.00076087,0.00077293,0.00029091,-0.00027534,0
 .00016736,0.00411880,-0.00743227,0.01744677,0.00022378,0.00077353,-0.0
 0049351,-0.00004626,-0.00020273,-0.00011582,0.00000024,0.00003418,0.00
 004736,0.00003122,0.00004413,-0.00001008,0.00000049,0.00001920,0.00002
 905,0.00018209,0.00029044,-0.00028222,-0.00043609,0.00023665,0.0001048
 2,0.00128777,-0.00046358,0.00037414,-0.00007594,0.00012454,-0.00025430
 ,-0.07380069,0.03754329,-0.07511218,0.07883396,-0.00394679,-0.00460256
 ,-0.00064222,0.00020084,-0.00060839,0.00171667,-0.00001053,0.00021891,
 -0.00044983,0.01039264,-0.01101628,0.02568596,0.00052945,0.00090397,-0
 .00070958,0.00009346,0.00002030,-0.00001757,0.00000905,0.00000154,0.00
 004759,0.00001207,-0.00000192,-0.00000180,-0.00003608,0.00002103,-0.00
 000124,-0.00008851,-0.00009562,0.00016455,-0.00040235,0.00030785,-0.00
 026016,0.00054598,-0.00004872,0.00014297,-0.00013107,0.00011490,0.0000
 9609,0.03618338,-0.09582030,0.09373929,-0.03744933,0.10359490,0.000913
 36,0.00136940,0.00133045,-0.00033128,0.00030981,-0.00019078,-0.0001430
 8,-0.00007249,-0.00002623,-0.00041648,0.00141207,-0.00434418,0.0005731
 8,0.00026529,0.00066307,-0.00007425,0.00004004,0.00010926,0.00000998,-
 0.00001900,-0.00002906,-0.00002245,-0.00003237,-0.00000546,0.00002684,
 -0.00000389,-0.00000205,0.00003196,-0.00009817,-0.00019520,0.00042048,
 -0.00023140,0.00021442,-0.00039293,0.00031427,-0.00010948,-0.00011529,
 -0.00017687,0.00054271,-0.07385376,0.09445664,-0.24037169,0.08047731,-
 0.10629917,0.25885879,-0.00010839,0.00085687,-0.00035875,-0.00012108,0
 .00014106,-0.00014763,-0.00002130,0.00019784,0.00003120,0.00015229,-0.
 01308130,-0.01421264,-0.00090370,-0.00361042,0.00089185,-0.00008467,-0
 .00029138,-0.00011309,-0.00000352,0.00007129,0.00003160,0.00002383,0.0
 0006073,-0.00000385,0.00001652,0.00002911,0.00003070,0.00014088,0.0002
 0972,-0.00007893,-0.00004553,0.00053359,0.00034988,0.00117251,-0.00076
 131,-0.00076550,0.00025423,0.00021376,0.00037274,-0.05056697,0.0264071
 9,0.02947121,0.00074747,-0.00788460,-0.00828273,0.05377707,0.00055545,
 0.00128479,-0.00097541,-0.00012163,0.00062027,0.00016591,0.00000551,-0
 .00003759,-0.00000077,0.00289903,-0.01994664,-0.02317450,-0.00293923,-
 0.00416781,0.00182842,0.00013921,-0.00000380,-0.00003534,-0.00001714,-
 0.00000270,-0.00002271,-0.00001905,0.00001139,0.00001058,-0.00000883,0
 .00000246,0.00000308,-0.00022026,-0.00029439,0.00066864,0.00011955,0.0
 0075630,-0.00043451,0.00048755,-0.00024503,-0.00029331,-0.00006665,-0.
 00004484,0.00102836,0.02485905,-0.15494885,-0.12617173,-0.00288829,0.0
 0995730,0.01088029,-0.02374748,0.17087267,-0.00046192,0.00052594,0.001
 15585,-0.00002751,-0.00005554,0.00013392,0.00001398,0.00000802,-0.0000
 7193,-0.00205382,0.00307116,0.00496424,0.00113564,0.00144313,0.0010006
 2,0.00006926,0.00003175,-0.00006148,-0.00000004,-0.00000414,-0.0000031
 9,0.00001313,0.00001305,0.00000107,-0.00000914,-0.00000676,-0.00000270
 ,-0.00010277,-0.00004994,0.00031305,-0.00010514,0.00036753,-0.00024658
 ,0.00000021,-0.00023600,0.00000409,0.00021810,-0.00036759,0.00026101,0
 .02846590,-0.12662244,-0.20094184,0.00495323,-0.01770117,-0.01937285,-
 0.03224048,0.14034489,0.21492530,0.00065926,0.00067820,-0.00062199,0.0
 0035113,-0.00018204,-0.00007649,0.00043016,-0.00047630,0.00071927,-0.0
 1804798,-0.00284987,0.00220465,0.00060942,-0.00042785,-0.00007760,0.00
 022363,0.00041839,0.00006564,-0.00001399,-0.00005436,-0.00006046,-0.00
 004972,-0.00004764,0.00002073,-0.00005314,-0.00004264,-0.00005636,-0.0
 0009048,-0.00072809,0.00078856,0.00021174,0.00080163,-0.00100974,-0.00
 002219,-0.00224415,0.00030584,-0.00002012,0.00002688,-0.00006928,-0.28
 692630,0.04725825,0.02136014,-0.01018586,0.00198239,0.00117914,-0.0044
 2965,0.00096321,0.00013137,0.31735409,0.00062080,0.00139620,-0.0009669
 6,0.00025374,0.00009019,-0.00037688,0.00057094,-0.00034802,0.00036789,
 -0.02825968,0.00083202,0.00347782,0.00135367,0.00044264,-0.00019629,0.
 00039982,0.00089811,0.00015121,0.00000914,-0.00014658,-0.00012552,-0.0
 0006334,-0.00007644,0.00003373,-0.00008915,-0.00007084,-0.00010846,-0.
 00079659,-0.00148770,0.00226909,0.00200699,0.00071255,-0.00267072,-0.0
 0462893,-0.00094543,0.00124801,-0.00003323,-0.00011080,-0.00009046,0.0
 3975599,-0.05074629,-0.00352528,0.01332053,-0.00294694,-0.00211445,0.0
 2065532,-0.00381354,-0.00076187,-0.04507600,0.05632088,-0.00013974,-0.
 00044876,0.00050865,-0.00024678,-0.00001342,0.00005099,-0.00016116,0.0
 0034162,-0.00012773,0.00539343,-0.00015332,-0.00148596,0.00010160,-0.0
 0000883,0.00007620,-0.00002094,-0.00012277,-0.00001807,0.00000604,0.00
 001495,0.00001770,0.00001130,0.00001095,-0.00000846,0.00001003,0.00001
 475,0.00001835,0.00004174,0.00013829,-0.00021580,-0.00000604,0.0000795
 0,0.00022937,0.00059028,0.00034940,0.00031869,0.00015827,-0.00002275,0
 .00008919,0.02195657,-0.00423646,-0.04720813,-0.02791560,0.00448962,0.
 00292827,0.02502442,-0.00382189,-0.00205856,-0.02480342,0.00338914,0.0
 4688528\\-0.00000287,0.00000658,0.00000007,0.00000162,0.00000122,0.000
 00274,0.00000061,-0.00000083,-0.00000041,-0.00000036,-0.00000140,-0.00
 000097,0.00000026,-0.00000189,0.00000127,-0.00000061,0.00000453,0.0000
 0124,0.00000066,-0.00000088,-0.00000149,-0.00000006,0.00000044,-0.0000
 0046,0.00000018,-0.00000063,-0.00000137,-0.00000093,-0.00000102,-0.000
 00129,-0.00000033,-0.00000161,-0.00000101,0.00000119,-0.00000100,0.000
 00175,-0.00000148,-0.00000255,-0.00000081,0.00000058,-0.00000062,0.000
 00296,0.00000128,-0.00000099,-0.00000117,-0.00000033,0.00000054,-0.000
 00126,0.00000058,0.00000010,0.00000021\\\@


 I WANT TO KNOW HOW GOD CREATED THE WORLD.  I AM NOT INTERESTED IN
 THIS OR THAT PHENOMENON, IN THE SPECTRUM OF THIS OR THAT ELEMENT.
 I WANT TO KNOW HIS THOUGHTS, THE REST ARE DETAILS.
     -- ALBERT EINSTEIN
 Job cpu time:       2 days  3 hours  6 minutes  2.6 seconds.
 Elapsed time:       0 days  1 hours 19 minutes  0.5 seconds.
 File lengths (MBytes):  RWF=  75938 Int=      0 D2E=      0 Chk=     18 Scr=      1
 Normal termination of Gaussian 16 at Tue Jun 25 04:33:27 2019.
