 Entering Gaussian System, Link 0=g16
 Initial command:
 /ichec/packages/gaussian/16b01/l1.exe "/localscratch/353444/Gau-90904.inp" -scrdir="/localscratch/353444/"
 Entering Link 1 = /ichec/packages/gaussian/16b01/l1.exe PID=     91294.
  
 Copyright (c) 1988-2017, Gaussian, Inc.  All Rights Reserved.
  
 This is part of the Gaussian(R) 16 program.  It is based on
 the Gaussian(R) 09 system (copyright 2009, Gaussian, Inc.),
 the Gaussian(R) 03 system (copyright 2003, Gaussian, Inc.),
 the Gaussian(R) 98 system (copyright 1998, Gaussian, Inc.),
 the Gaussian(R) 94 system (copyright 1995, Gaussian, Inc.),
 the Gaussian 92(TM) system (copyright 1992, Gaussian, Inc.),
 the Gaussian 90(TM) system (copyright 1990, Gaussian, Inc.),
 the Gaussian 88(TM) system (copyright 1988, Gaussian, Inc.),
 the Gaussian 86(TM) system (copyright 1986, Carnegie Mellon
 University), and the Gaussian 82(TM) system (copyright 1983,
 Carnegie Mellon University). Gaussian is a federally registered
 trademark of Gaussian, Inc.
  
 This software contains proprietary and confidential information,
 including trade secrets, belonging to Gaussian, Inc.
  
 This software is provided under written license and may be
 used, copied, transmitted, or stored only in accord with that
 written license.
  
 The following legend is applicable only to US Government
 contracts under FAR:
  
                    RESTRICTED RIGHTS LEGEND
  
 Use, reproduction and disclosure by the US Government is
 subject to restrictions as set forth in subparagraphs (a)
 and (c) of the Commercial Computer Software - Restricted
 Rights clause in FAR 52.227-19.
  
 Gaussian, Inc.
 340 Quinnipiac St., Bldg. 40, Wallingford CT 06492
  
  
 ---------------------------------------------------------------
 Warning -- This program may not be used in any manner that
 competes with the business of Gaussian, Inc. or will provide
 assistance to any competitor of Gaussian, Inc.  The licensee
 of this program is prohibited from giving any competitor of
 Gaussian, Inc. access to this program.  By using this program,
 the user acknowledges that Gaussian, Inc. is engaged in the
 business of creating and licensing software in the field of
 computational chemistry and represents and warrants to the
 licensee that it is not a competitor of Gaussian, Inc. and that
 it will not use this program in any manner prohibited above.
 ---------------------------------------------------------------
  

 Cite this work as:
 Gaussian 16, Revision B.01,
 M. J. Frisch, G. W. Trucks, H. B. Schlegel, G. E. Scuseria, 
 M. A. Robb, J. R. Cheeseman, G. Scalmani, V. Barone, 
 G. A. Petersson, H. Nakatsuji, X. Li, M. Caricato, A. V. Marenich, 
 J. Bloino, B. G. Janesko, R. Gomperts, B. Mennucci, H. P. Hratchian, 
 J. V. Ortiz, A. F. Izmaylov, J. L. Sonnenberg, D. Williams-Young, 
 F. Ding, F. Lipparini, F. Egidi, J. Goings, B. Peng, A. Petrone, 
 T. Henderson, D. Ranasinghe, V. G. Zakrzewski, J. Gao, N. Rega, 
 G. Zheng, W. Liang, M. Hada, M. Ehara, K. Toyota, R. Fukuda, 
 J. Hasegawa, M. Ishida, T. Nakajima, Y. Honda, O. Kitao, H. Nakai, 
 T. Vreven, K. Throssell, J. A. Montgomery, Jr., J. E. Peralta, 
 F. Ogliaro, M. J. Bearpark, J. J. Heyd, E. N. Brothers, K. N. Kudin, 
 V. N. Staroverov, T. A. Keith, R. Kobayashi, J. Normand, 
 K. Raghavachari, A. P. Rendell, J. C. Burant, S. S. Iyengar, 
 J. Tomasi, M. Cossi, J. M. Millam, M. Klene, C. Adamo, R. Cammi, 
 J. W. Ochterski, R. L. Martin, K. Morokuma, O. Farkas, 
 J. B. Foresman, and D. J. Fox, Gaussian, Inc., Wallingford CT, 2016.
 
 ******************************************
 Gaussian 16:  ES64L-G16RevB.01 20-Dec-2017
                25-Jun-2019 
 ******************************************
 %mem=80GB
 %nproc=40
 Will use up to   40 processors via shared memory.
 ----------------------------------------------------------------------
 # opt=(calcfc,ts,noeigentest,maxcyc=500) freq=noraman uB2PLYPD3/cc-pvt
 z
 ----------------------------------------------------------------------
 1/5=1,6=500,10=4,11=1,18=20,38=1/1,3;
 2/9=110,12=2,17=6,18=5,40=1/2;
 3/5=16,6=1,11=2,25=1,30=1,71=2,74=-60,116=2,140=1/1,2,3;
 4//1;
 5/5=2,38=5/2;
 8/6=3,8=1,10=1,19=11,30=-1/1;
 9/15=3,16=-3/6;
 11/6=1,8=1,15=11,17=12,24=-1,27=1,28=-2,29=300,32=6,42=3/1,2,10;
 10/6=2,21=1/2;
 8/6=4,8=1,10=1,19=11,30=-1/11,4;
 10/5=1,20=4/2;
 11/12=2,14=11,16=1,17=2,28=-2,42=3,76=2/2,10,12;
 6/7=2,8=2,9=2,10=2/1;
 7/10=1,12=2,25=1,44=2/1,2,3,16;
 1/5=1,6=500,10=4,11=1,18=20/3(2);
 2/9=110/2;
 99//99;
 2/9=110/2;
 3/5=16,6=1,11=2,25=1,30=1,71=1,74=-60,116=2/1,2,3;
 4/5=5,16=3,69=1/1;
 5/5=2,38=5/2;
 8/6=4,10=1/1;
 9/15=2,16=-3/6;
 10/5=1/2;
 7/12=2/1,2,3,16;
 1/5=1,6=500,11=1,18=20/3(-8);
 2/9=110/2;
 6/7=2,8=2,9=2,10=2/1;
 99/9=10/99;
 -------------------
 Title Card Required
 -------------------
 Symbolic Z-matrix:
 Charge =  0 Multiplicity = 2
 C                    -2.50932   1.10159  -0.81874 
 H                    -2.60629   0.19852  -0.21386 
 H                    -2.83541   1.96739  -0.24605 
 H                    -3.10267   1.00372  -1.72625 
 O                    -1.14836   1.35409  -1.13508 
 O                    -0.69582   0.30605  -1.96148 
 H                    -0.25929  -0.48941  -1.22354 
 C                     0.32297  -1.40669  -0.41017 
 C                     1.67406  -0.8455   -0.07201 
 H                     0.30922  -2.28235  -1.05256 
 H                    -0.38309  -1.4755    0.41358 
 C                     1.61469   0.38907   0.8248 
 H                     2.26466  -1.62511   0.42729 
 H                     2.21332  -0.60886  -0.99217 
 C                     2.99813   0.93958   1.15026 
 H                     1.0127    1.15487   0.33544 
 H                     1.09396   0.12942   1.74986 
 H                     2.93613   1.81462   1.79545 
 H                     3.60966   0.19306   1.65848 
 H                     3.5231    1.23391   0.24126 
 
 Add virtual bond connecting atoms H7         and O6         Dist= 2.21D+00.
 Add virtual bond connecting atoms C8         and H7         Dist= 2.56D+00.

 GradGradGradGradGradGradGradGradGradGradGradGradGradGradGradGradGradGrad
 Berny optimization.
 Initialization pass.
                           ----------------------------
                           !    Initial Parameters    !
                           ! (Angstroms and Degrees)  !
 --------------------------                            --------------------------
 ! Name  Definition              Value          Derivative Info.                !
 --------------------------------------------------------------------------------
 ! R1    R(1,2)                  1.0913         calculate D2E/DX2 analytically  !
 ! R2    R(1,3)                  1.0881         calculate D2E/DX2 analytically  !
 ! R3    R(1,4)                  1.0887         calculate D2E/DX2 analytically  !
 ! R4    R(1,5)                  1.4199         calculate D2E/DX2 analytically  !
 ! R5    R(5,6)                  1.4093         calculate D2E/DX2 analytically  !
 ! R6    R(6,7)                  1.1696         calculate D2E/DX2 analytically  !
 ! R7    R(7,8)                  1.3572         calculate D2E/DX2 analytically  !
 ! R8    R(8,9)                  1.5016         calculate D2E/DX2 analytically  !
 ! R9    R(8,10)                 1.0861         calculate D2E/DX2 analytically  !
 ! R10   R(8,11)                 1.0871         calculate D2E/DX2 analytically  !
 ! R11   R(9,12)                 1.5271         calculate D2E/DX2 analytically  !
 ! R12   R(9,13)                 1.0981         calculate D2E/DX2 analytically  !
 ! R13   R(9,14)                 1.0925         calculate D2E/DX2 analytically  !
 ! R14   R(12,15)                1.5241         calculate D2E/DX2 analytically  !
 ! R15   R(12,16)                1.0901         calculate D2E/DX2 analytically  !
 ! R16   R(12,17)                1.0928         calculate D2E/DX2 analytically  !
 ! R17   R(15,18)                1.0889         calculate D2E/DX2 analytically  !
 ! R18   R(15,19)                1.0907         calculate D2E/DX2 analytically  !
 ! R19   R(15,20)                1.0902         calculate D2E/DX2 analytically  !
 ! A1    A(2,1,3)              109.884          calculate D2E/DX2 analytically  !
 ! A2    A(2,1,4)              109.8299         calculate D2E/DX2 analytically  !
 ! A3    A(2,1,5)              110.845          calculate D2E/DX2 analytically  !
 ! A4    A(3,1,4)              110.3            calculate D2E/DX2 analytically  !
 ! A5    A(3,1,5)              105.2497         calculate D2E/DX2 analytically  !
 ! A6    A(4,1,5)              110.651          calculate D2E/DX2 analytically  !
 ! A7    A(1,5,6)              107.8293         calculate D2E/DX2 analytically  !
 ! A8    A(5,6,7)              104.8128         calculate D2E/DX2 analytically  !
 ! A9    A(7,8,9)              105.5687         calculate D2E/DX2 analytically  !
 ! A10   A(7,8,10)             100.6612         calculate D2E/DX2 analytically  !
 ! A11   A(7,8,11)             102.6065         calculate D2E/DX2 analytically  !
 ! A12   A(9,8,10)             116.4817         calculate D2E/DX2 analytically  !
 ! A13   A(9,8,11)             115.9385         calculate D2E/DX2 analytically  !
 ! A14   A(10,8,11)            112.8869         calculate D2E/DX2 analytically  !
 ! A15   A(8,9,12)             113.5419         calculate D2E/DX2 analytically  !
 ! A16   A(8,9,13)             108.7227         calculate D2E/DX2 analytically  !
 ! A17   A(8,9,14)             109.5977         calculate D2E/DX2 analytically  !
 ! A18   A(12,9,13)            109.1381         calculate D2E/DX2 analytically  !
 ! A19   A(12,9,14)            109.7989         calculate D2E/DX2 analytically  !
 ! A20   A(13,9,14)            105.7395         calculate D2E/DX2 analytically  !
 ! A21   A(9,12,15)            112.4657         calculate D2E/DX2 analytically  !
 ! A22   A(9,12,16)            109.013          calculate D2E/DX2 analytically  !
 ! A23   A(9,12,17)            108.8781         calculate D2E/DX2 analytically  !
 ! A24   A(15,12,16)           110.083          calculate D2E/DX2 analytically  !
 ! A25   A(15,12,17)           109.7288         calculate D2E/DX2 analytically  !
 ! A26   A(16,12,17)           106.4853         calculate D2E/DX2 analytically  !
 ! A27   A(12,15,18)           111.4132         calculate D2E/DX2 analytically  !
 ! A28   A(12,15,19)           111.1753         calculate D2E/DX2 analytically  !
 ! A29   A(12,15,20)           110.8891         calculate D2E/DX2 analytically  !
 ! A30   A(18,15,19)           107.8095         calculate D2E/DX2 analytically  !
 ! A31   A(18,15,20)           107.7276         calculate D2E/DX2 analytically  !
 ! A32   A(19,15,20)           107.657          calculate D2E/DX2 analytically  !
 ! A33   L(6,7,8,2,-1)         183.6277         calculate D2E/DX2 analytically  !
 ! A34   L(6,7,8,2,-2)         180.6674         calculate D2E/DX2 analytically  !
 ! D1    D(2,1,5,6)             65.3675         calculate D2E/DX2 analytically  !
 ! D2    D(3,1,5,6)           -175.8801         calculate D2E/DX2 analytically  !
 ! D3    D(4,1,5,6)            -56.7339         calculate D2E/DX2 analytically  !
 ! D4    D(1,5,6,7)            -91.1177         calculate D2E/DX2 analytically  !
 ! D5    D(5,6,8,9)            -78.3039         calculate D2E/DX2 analytically  !
 ! D6    D(5,6,8,10)           160.7558         calculate D2E/DX2 analytically  !
 ! D7    D(5,6,8,11)            43.7616         calculate D2E/DX2 analytically  !
 ! D8    D(7,8,9,12)            68.8719         calculate D2E/DX2 analytically  !
 ! D9    D(7,8,9,13)          -169.4427         calculate D2E/DX2 analytically  !
 ! D10   D(7,8,9,14)           -54.3109         calculate D2E/DX2 analytically  !
 ! D11   D(10,8,9,12)          179.565          calculate D2E/DX2 analytically  !
 ! D12   D(10,8,9,13)          -58.7496         calculate D2E/DX2 analytically  !
 ! D13   D(10,8,9,14)           56.3822         calculate D2E/DX2 analytically  !
 ! D14   D(11,8,9,12)          -43.9251         calculate D2E/DX2 analytically  !
 ! D15   D(11,8,9,13)           77.7603         calculate D2E/DX2 analytically  !
 ! D16   D(11,8,9,14)         -167.1079         calculate D2E/DX2 analytically  !
 ! D17   D(8,9,12,15)         -179.8902         calculate D2E/DX2 analytically  !
 ! D18   D(8,9,12,16)          -57.5116         calculate D2E/DX2 analytically  !
 ! D19   D(8,9,12,17)           58.276          calculate D2E/DX2 analytically  !
 ! D20   D(13,9,12,15)          58.6562         calculate D2E/DX2 analytically  !
 ! D21   D(13,9,12,16)        -178.9652         calculate D2E/DX2 analytically  !
 ! D22   D(13,9,12,17)         -63.1776         calculate D2E/DX2 analytically  !
 ! D23   D(14,9,12,15)         -56.8179         calculate D2E/DX2 analytically  !
 ! D24   D(14,9,12,16)          65.5607         calculate D2E/DX2 analytically  !
 ! D25   D(14,9,12,17)        -178.6517         calculate D2E/DX2 analytically  !
 ! D26   D(9,12,15,18)        -179.6112         calculate D2E/DX2 analytically  !
 ! D27   D(9,12,15,19)         -59.3306         calculate D2E/DX2 analytically  !
 ! D28   D(9,12,15,20)          60.4056         calculate D2E/DX2 analytically  !
 ! D29   D(16,12,15,18)         58.6164         calculate D2E/DX2 analytically  !
 ! D30   D(16,12,15,19)        178.897          calculate D2E/DX2 analytically  !
 ! D31   D(16,12,15,20)        -61.3668         calculate D2E/DX2 analytically  !
 ! D32   D(17,12,15,18)        -58.2619         calculate D2E/DX2 analytically  !
 ! D33   D(17,12,15,19)         62.0187         calculate D2E/DX2 analytically  !
 ! D34   D(17,12,15,20)       -178.2451         calculate D2E/DX2 analytically  !
 --------------------------------------------------------------------------------
 Trust Radius=3.00D-01 FncErr=1.00D-07 GrdErr=1.00D-07 EigMax=2.50D+02 EigMin=1.00D-04
 Number of steps in this run=    120 maximum allowed number of steps=    120.
 Search for a saddle point of order  1.
 GradGradGradGradGradGradGradGradGradGradGradGradGradGradGradGradGradGrad

                          Input orientation:                          
 ---------------------------------------------------------------------
 Center     Atomic      Atomic             Coordinates (Angstroms)
 Number     Number       Type             X           Y           Z
 ---------------------------------------------------------------------
      1          6           0       -2.509315    1.101594   -0.818742
      2          1           0       -2.606291    0.198518   -0.213860
      3          1           0       -2.835411    1.967390   -0.246049
      4          1           0       -3.102665    1.003725   -1.726246
      5          8           0       -1.148356    1.354092   -1.135084
      6          8           0       -0.695820    0.306046   -1.961478
      7          1           0       -0.259294   -0.489410   -1.223543
      8          6           0        0.322970   -1.406690   -0.410165
      9          6           0        1.674059   -0.845499   -0.072005
     10          1           0        0.309216   -2.282349   -1.052558
     11          1           0       -0.383094   -1.475503    0.413580
     12          6           0        1.614685    0.389069    0.824801
     13          1           0        2.264661   -1.625108    0.427291
     14          1           0        2.213319   -0.608862   -0.992170
     15          6           0        2.998128    0.939580    1.150263
     16          1           0        1.012698    1.154869    0.335443
     17          1           0        1.093962    0.129421    1.749863
     18          1           0        2.936129    1.814619    1.795454
     19          1           0        3.609660    0.193060    1.658476
     20          1           0        3.523096    1.233907    0.241260
 ---------------------------------------------------------------------
                    Distance matrix (angstroms):
                    1          2          3          4          5
     1  C    0.000000
     2  H    1.091253   0.000000
     3  H    1.088080   1.783940   0.000000
     4  H    1.088672   1.783832   1.786353   0.000000
     5  O    1.419872   2.075953   2.003166   2.071606   0.000000
     6  O    2.286374   2.591453   3.206339   2.516941   1.409296
     7  H    2.785274   2.645959   3.691577   3.250680   2.048599
     8  C    3.805294   3.346012   4.624578   4.390575   3.211265
     9  C    4.674335   4.408116   5.317702   5.382679   3.732876
    10  H    4.410199   3.918966   5.347842   4.784670   3.918549
    11  H    3.561020   2.852829   4.278140   4.256935   3.315206
    12  C    4.496254   4.351065   4.841608   5.398058   3.522331
    13  H    5.637229   5.240502   6.274565   6.352690   4.792216
    14  H    5.025834   4.948360   5.716944   5.603480   3.895442
    15  C    5.851082   5.815455   6.085742   6.745227   4.752679
    16  H    3.706691   3.783308   3.975710   4.605390   2.621506
    17  H    4.530613   4.189613   4.775120   5.519005   3.853664
    18  H    6.082375   6.112900   6.123867   7.037539   5.048084
    19  H    6.663625   6.491819   6.950856   7.561007   5.638323
    20  H    6.126263   6.232860   6.419196   6.915546   4.871471
                    6          7          8          9         10
     6  O    0.000000
     7  H    1.169553   0.000000
     8  C    2.525464   1.357210   0.000000
     9  C    3.242297   2.278309   1.501576   0.000000
    10  H    2.921647   1.888669   1.086111   2.211067   0.000000
    11  H    2.985400   1.915170   1.087114   2.205578   1.811037
    12  C    3.620591   2.911913   2.533460   1.527071   3.516419
    13  H    4.266148   3.222640   2.125842   1.098134   2.538835
    14  H    3.199954   2.486286   2.132763   1.092475   2.535708
    15  C    4.871299   4.276420   3.885407   2.536455   4.739567
    16  H    2.985863   2.598472   2.755584   2.145899   3.773049
    17  H    4.124145   3.324966   2.760396   2.146202   3.779686
    18  H    5.438877   4.963227   4.697892   3.486610   5.638882
    19  H    5.626188   4.872433   4.200096   2.796376   4.936627
    20  H    4.848941   4.407033   4.199752   2.800179   4.936299
                   11         12         13         14         15
    11  H    0.000000
    12  C    2.763486   0.000000
    13  H    2.652014   2.153460   0.000000
    14  H    3.077103   2.157687   1.746500   0.000000
    15  C    4.219951   1.524107   2.763745   2.757466   0.000000
    16  H    2.978791   1.090096   3.050265   2.512925   2.156899
    17  H    2.557954   1.092845   2.489599   3.052338   2.154467
    18  H    4.873574   2.172688   3.762241   3.763849   1.088948
    19  H    4.502883   2.171027   2.574990   3.101414   1.090662
    20  H    4.756986   2.167096   3.129254   2.575396   1.090186
                   16         17         18         19         20
    16  H    0.000000
    17  H    1.748923   0.000000
    18  H    2.503296   2.497108   0.000000
    19  H    3.069154   2.518162   1.761210   0.000000
    20  H    2.513407   3.065365   1.759908   1.760499   0.000000
 Stoichiometry    C5H13O2(2)
 Framework group  C1[X(C5H13O2)]
 Deg. of freedom    54
 Full point group                 C1      NOp   1
 Largest Abelian subgroup         C1      NOp   1
 Largest concise Abelian subgroup C1      NOp   1
                         Standard orientation:                         
 ---------------------------------------------------------------------
 Center     Atomic      Atomic             Coordinates (Angstroms)
 Number     Number       Type             X           Y           Z
 ---------------------------------------------------------------------
      1          6           0        2.835418   -0.664259    0.586196
      2          1           0        2.541774   -0.015370    1.412966
      3          1           0        3.003453   -1.675473    0.951065
      4          1           0        3.737887   -0.277610    0.115815
      5          8           0        1.785857   -0.779352   -0.363126
      6          8           0        1.587158    0.489794   -0.942697
      7          1           0        0.774287    0.999852   -0.274166
      8          6           0       -0.217765    1.601557    0.429966
      9          6           0       -1.493572    0.977411   -0.057361
     10          1           0       -0.053367    2.640856    0.160766
     11          1           0        0.055639    1.383067    1.459203
     12          6           0       -1.651073   -0.485933    0.349777
     13          1           0       -2.341028    1.553965    0.336723
     14          1           0       -1.553726    1.067591   -1.144444
     15          6           0       -2.951928   -1.095362   -0.159416
     16          1           0       -0.799535   -1.052923   -0.026674
     17          1           0       -1.612750   -0.555806    1.439712
     18          1           0       -3.049782   -2.135992    0.146073
     19          1           0       -3.817356   -0.552703    0.222814
     20          1           0       -2.996096   -1.063478   -1.248240
 ---------------------------------------------------------------------
 Rotational constants (GHZ):           3.6945905           1.0952993           0.9552238
 Standard basis: CC-pVTZ (5D, 7F)
 There are   440 symmetry adapted cartesian basis functions of A   symmetry.
 There are   392 symmetry adapted basis functions of A   symmetry.
   392 basis functions,   585 primitive gaussians,   440 cartesian basis functions
    30 alpha electrons       29 beta electrons
       nuclear repulsion energy       321.1866844601 Hartrees.
 NAtoms=   20 NActive=   20 NUniq=   20 SFac= 1.00D+00 NAtFMM=   60 NAOKFM=F Big=F
 Integral buffers will be    131072 words long.
 Raffenetti 2 integral format.
 Two-electron integral symmetry is turned on.
 Nuclear repulsion after empirical dispersion term =      321.1765552823 Hartrees.
 One-electron integrals computed using PRISM.
 NBasis=   392 RedAO= T EigKep=  5.20D-04  NBF=   392
 NBsUse=   392 1.00D-06 EigRej= -1.00D+00 NBFU=   392
 ExpMin= 1.03D-01 ExpMax= 1.53D+04 ExpMxC= 5.22D+02 IAcc=3 IRadAn=         5 AccDes= 0.00D+00
 Harris functional with IExCor=  419 and IRadAn=       5 diagonalized for initial guess.
 HarFok:  IExCor=  419 AccDes= 0.00D+00 IRadAn=         5 IDoV= 1 UseB2=F ITyADJ=14
 ICtDFT=  3500011 ScaDFX=  1.000000  1.000000  1.000000  1.000000
 FoFCou: FMM=F IPFlag=           0 FMFlag=      100000 FMFlg1=           0
         NFxFlg=           0 DoJE=T BraDBF=F KetDBF=T FulRan=T
         wScrn=  0.000000 ICntrl=       500 IOpCl=  0 I1Cent=   200000004 NGrid=           0
         NMat0=    1 NMatS0=      1 NMatT0=    0 NMatD0=    1 NMtDS0=    0 NMtDT0=    0
 Petite list used in FoFCou.
 Initial guess <Sx>= 0.0000 <Sy>= 0.0000 <Sz>= 0.5000 <S**2>= 0.7500 S= 0.5000
 Requested convergence on RMS density matrix=1.00D-08 within 128 cycles.
 Requested convergence on MAX density matrix=1.00D-06.
 Requested convergence on             energy=1.00D-06.
 No special actions if energy rises.
 Integral accuracy reduced to 1.0D-05 until final iterations.
 Initial convergence to 1.0D-05 achieved.  Increase integral accuracy.
 SCF Done:  E(UB2PLYPD3) =  -348.024676131     A.U. after   19 cycles
            NFock= 19  Conv=0.28D-08     -V/T= 2.0044
 <Sx>= 0.0000 <Sy>= 0.0000 <Sz>= 0.5000 <S**2>= 0.7684 S= 0.5092
 <L.S>=  0.00000000000    
 Annihilation of the first spin contaminant:
 S**2 before annihilation     0.7684,   after     0.7501
 DoSCS=T DFT=T ScalE2(SS,OS)=  0.270000  0.270000
 ExpMin= 1.03D-01 ExpMax= 1.53D+04 ExpMxC= 5.22D+02 IAcc=3 IRadAn=         5 AccDes= 0.00D+00
 HarFok:  IExCor=  205 AccDes= 0.00D+00 IRadAn=         5 IDoV=-2 UseB2=F ITyADJ=14
 ICtDFT= 12500011 ScaDFX=  1.000000  1.000000  1.000000  1.000000
 Range of M.O.s used for correlation:     8   392
 NBasis=   392 NAE=    30 NBE=    29 NFC=     7 NFV=     0
 NROrb=    385 NOA=    23 NOB=    22 NVA=   362 NVB=   363

 **** Warning!!: The largest alpha MO coefficient is  0.12163258D+02


 **** Warning!!: The largest beta MO coefficient is  0.12163228D+02

 DoSCS=T DFT=T ScalE2(SS,OS)=  0.270000  0.270000
 Disk-based method using ON**2 memory for 23 occupieds at a time.
 Permanent disk used for amplitudes=   169421973 words.
 Estimated scratch disk usage=  3235448024 words.
 Actual    scratch disk usage=  3128510168 words.
 JobTyp=2 Pass  1:  I=   8 to  30 NPSUse= 40 ParTrn=T ParDer=T DoDerP=T.
 (rs|ai) integrals will be sorted in core.
 Actual    scratch disk usage=  3128510168 words.
 JobTyp=3 Pass  1:  I=   8 to  29 NPSUse= 40 ParTrn=T ParDer=T DoDerP=T.
 (rs|ai) integrals will be sorted in core.
 Spin components of T(2) and E(2):
     alpha-alpha T2 =       0.7453049898D-01 E2=     -0.5381572736D-01
     alpha-beta  T2 =       0.4580823872D+00 E2=     -0.3429393132D+00
     beta-beta   T2 =       0.7872123325D-01 E2=     -0.5219812021D-01
 (S**2,0)=  0.76844D+00           (S**2,1)=  0.74275D+00
 Scaling Projection term by:   0.270000
 E(PUHF)=      -0.34803086401D+03        E(PMP2)=      -0.34847414189D+03
 E2(B2PLYPD3) =    -0.4489531608D+00 E(B2PLYPD3) =    -0.34847362929189D+03
 G2DrvN: will do    21 centers at a time, making    1 passes.
 Calling FoFCou, ICntrl=  3107 FMM=F I1Cent=   0 AccDes= 0.00D+00.
 End of G2Drv F.D. properties file   721 does not exist.
 End of G2Drv F.D. properties file   722 does not exist.
 End of G2Drv F.D. properties file   788 does not exist.
          IDoAtm=11111111111111111111
          Differentiating once with respect to electric field.
                with respect to dipole field.
          Differentiating once with respect to nuclear coordinates.
 CalDSu exits because no D1Ps are significant.
          There are    63 degrees of freedom in the 1st order CPHF.  IDoFFX=6 NUNeed=    63.
     60 vectors produced by pass  0 Test12= 3.39D-14 1.59D-09 XBig12= 7.39D+01 4.08D+00.
 AX will form    60 AO Fock derivatives at one time.
     60 vectors produced by pass  1 Test12= 3.39D-14 1.59D-09 XBig12= 5.97D+00 4.75D-01.
     60 vectors produced by pass  2 Test12= 3.39D-14 1.59D-09 XBig12= 2.68D-01 9.91D-02.
     60 vectors produced by pass  3 Test12= 3.39D-14 1.59D-09 XBig12= 4.11D-03 4.63D-03.
     60 vectors produced by pass  4 Test12= 3.39D-14 1.59D-09 XBig12= 3.69D-05 6.15D-04.
     60 vectors produced by pass  5 Test12= 3.39D-14 1.59D-09 XBig12= 4.86D-07 6.09D-05.
     54 vectors produced by pass  6 Test12= 3.39D-14 1.59D-09 XBig12= 3.96D-09 6.32D-06.
     23 vectors produced by pass  7 Test12= 3.39D-14 1.59D-09 XBig12= 2.27D-11 4.44D-07.
      3 vectors produced by pass  8 Test12= 3.39D-14 1.59D-09 XBig12= 1.57D-13 2.88D-08.
      2 vectors produced by pass  9 Test12= 3.39D-14 1.59D-09 XBig12= 1.23D-15 2.46D-09.
 InvSVY:  IOpt=1 It=  1 EMax= 1.07D-14
 Solved reduced A of dimension   442 with    63 vectors.
 End of Minotr F.D. properties file   721 does not exist.
 End of Minotr F.D. properties file   722 does not exist.
 End of Minotr F.D. properties file   788 does not exist.
 MDV= 10737418240.
 DoSCS=T DFT=T ScalE2(SS,OS)=  0.270000  0.270000
 Form MO integral derivatives with frozen-active canonical formalism.
 Discarding MO integrals.
 Reordered first order wavefunction length =    681858357
 In DefCFB: NBatch=  1 ICI= 30 ICA=363 LFMax= 73
            Large arrays: LIAPS= 14755319040 LIARS=  2347884000 words.
 In DefCFB: NBatch=  1 ICI= 30 ICA=363 LFMax= 73
            Large arrays: LIAPS= 14755319040 LIARS=  2347884000 words.
 Semi-Direct transformation.
 ModeAB=           4 MOrb=            30 LenV=   10732982519
 LASXX=    860785125 LTotXX=   860785125 LenRXX=  1733127225
 LTotAB=   872342100 MaxLAS=   983183040 LenRXY=           0
 NonZer=  2593912350 LenScr=  3906126848 LnRSAI=   983183040
 LnScr1=  1480558592 LExtra=           0 Total=   8102995705
 MaxDsk=          -1 SrtSym=           T ITran=            4
 JobTyp=1 Pass  1:  I=   1 to  30.
 (rs|ai) integrals will be sorted in core.
 ModeAB=           4 MOrb=            29 LenV=   10732982519
 LASXX=    833505211 LTotXX=   833505211 LenRXX=  1553741497
 LTotAB=   720236286 MaxLAS=   950410272 LenRXY=           0
 NonZer=  2387246708 LenScr=  3594912768 LnRSAI=   950410272
 LnScr1=  1431206912 LExtra=           0 Total=   7530271449
 MaxDsk=          -1 SrtSym=           T ITran=            4
 JobTyp=2 Pass  1:  I=   1 to  29.
 (rs|ai) integrals will be sorted in core.
 SymMOI:  orbitals are not symmetric.
 DoSCS=T DFT=T ScalE2(SS,OS)=  0.270000  0.270000
 Spin components of T(2) and E(2):
     alpha-alpha T2 =       0.7453049898D-01 E2=     -0.5381572736D-01
     alpha-beta  T2 =       0.4580823872D+00 E2=     -0.3429393132D+00
     beta-beta   T2 =       0.7872123325D-01 E2=     -0.5219812021D-01
 E2(B2PLYPD3) =    -0.4489531608D+00 E(B2PLYPD3) =    -0.34847362929189D+03
 (S**2,0)=  0.76844D+00           (S**2,1)=  0.74275D+00
 Scaling Projection term by:   0.270000
 E(PUHF)=      -0.34803086401D+03        E(PMP2)=      -0.34847414189D+03
          IDoAtm=11111111111111111111
          Differentiating once with respect to electric field.
                with respect to dipole field.
          Differentiating once with respect to nuclear coordinates.
          There are     1 degrees of freedom in the 1st order CPHF.  IDoFFX=0 NUNeed=     1.
 LinEq1:  Iter=  0 NonCon=     1 RMS=7.59D-04 Max=6.23D-02 NDo=     1
 AX will form     1 AO Fock derivatives at one time.
 LinEq1:  Iter=  1 NonCon=     1 RMS=2.42D-04 Max=7.77D-03 NDo=     1
 LinEq1:  Iter=  2 NonCon=     1 RMS=1.33D-04 Max=8.49D-03 NDo=     1
 LinEq1:  Iter=  3 NonCon=     1 RMS=5.57D-05 Max=1.24D-03 NDo=     1
 LinEq1:  Iter=  4 NonCon=     1 RMS=2.99D-05 Max=7.15D-04 NDo=     1
 LinEq1:  Iter=  5 NonCon=     1 RMS=2.12D-05 Max=7.29D-04 NDo=     1
 LinEq1:  Iter=  6 NonCon=     1 RMS=1.39D-05 Max=4.25D-04 NDo=     1
 LinEq1:  Iter=  7 NonCon=     1 RMS=5.24D-06 Max=1.03D-04 NDo=     1
 LinEq1:  Iter=  8 NonCon=     1 RMS=2.49D-06 Max=4.32D-05 NDo=     1
 LinEq1:  Iter=  9 NonCon=     1 RMS=1.00D-06 Max=2.52D-05 NDo=     1
 LinEq1:  Iter= 10 NonCon=     1 RMS=3.22D-07 Max=8.96D-06 NDo=     1
 LinEq1:  Iter= 11 NonCon=     1 RMS=1.15D-07 Max=2.60D-06 NDo=     1
 LinEq1:  Iter= 12 NonCon=     1 RMS=4.87D-08 Max=1.33D-06 NDo=     1
 LinEq1:  Iter= 13 NonCon=     1 RMS=1.93D-08 Max=2.82D-07 NDo=     1
 LinEq1:  Iter= 14 NonCon=     1 RMS=6.46D-09 Max=1.74D-07 NDo=     1
 LinEq1:  Iter= 15 NonCon=     1 RMS=2.05D-09 Max=3.72D-08 NDo=     1
 LinEq1:  Iter= 16 NonCon=     1 RMS=7.18D-10 Max=1.27D-08 NDo=     1
 LinEq1:  Iter= 17 NonCon=     1 RMS=3.00D-10 Max=6.12D-09 NDo=     1
 LinEq1:  Iter= 18 NonCon=     1 RMS=1.22D-10 Max=2.00D-09 NDo=     1
 LinEq1:  Iter= 19 NonCon=     1 RMS=4.28D-11 Max=1.06D-09 NDo=     1
 LinEq1:  Iter= 20 NonCon=     0 RMS=1.44D-11 Max=4.99D-10 NDo=     1
 Linear equations converged to 1.000D-10 1.000D-09 after    20 iterations.
 End of Minotr F.D. properties file   721 does not exist.
 End of Minotr F.D. properties file   722 does not exist.
 End of Minotr F.D. properties file   788 does not exist.
 Symmetrizing basis deriv contribution to polar:
 IMax=3 JMax=2 DiffMx= 0.00D+00
 G2DrvN: will do    21 centers at a time, making    1 passes.
 Calling FoFCou, ICntrl=  3107 FMM=F I1Cent=   0 AccDes= 0.00D+00.
 End of G2Drv F.D. properties file   721 does not exist.
 End of G2Drv F.D. properties file   722 does not exist.
 End of G2Drv F.D. properties file   788 does not exist.
 DoSCS=T DFT=T ScalE2(SS,OS)=  0.270000  0.270000
 R2 and R3 integrals will be kept in memory, NReq=  9455860260.
 DD1Dir will call FoFMem   1 times, MxPair=      2582
 NAB=   870 NAA=   435 NBB=   406.
 Discarding MO integrals.

 **********************************************************************

            Population analysis using the SCF Density.

 **********************************************************************

 Orbital symmetries:
 Alpha Orbitals:
       Occupied  (A) (A) (A) (A) (A) (A) (A) (A) (A) (A) (A) (A)
                 (A) (A) (A) (A) (A) (A) (A) (A) (A) (A) (A) (A)
                 (A) (A) (A) (A) (A) (A)
       Virtual   (A) (A) (A) (A) (A) (A) (A) (A) (A) (A) (A) (A)
                 (A) (A) (A) (A) (A) (A) (A) (A) (A) (A) (A) (A)
                 (A) (A) (A) (A) (A) (A) (A) (A) (A) (A) (A) (A)
                 (A) (A) (A) (A) (A) (A) (A) (A) (A) (A) (A) (A)
                 (A) (A) (A) (A) (A) (A) (A) (A) (A) (A) (A) (A)
                 (A) (A) (A) (A) (A) (A) (A) (A) (A) (A) (A) (A)
                 (A) (A) (A) (A) (A) (A) (A) (A) (A) (A) (A) (A)
                 (A) (A) (A) (A) (A) (A) (A) (A) (A) (A) (A) (A)
                 (A) (A) (A) (A) (A) (A) (A) (A) (A) (A) (A) (A)
                 (A) (A) (A) (A) (A) (A) (A) (A) (A) (A) (A) (A)
                 (A) (A) (A) (A) (A) (A) (A) (A) (A) (A) (A) (A)
                 (A) (A) (A) (A) (A) (A) (A) (A) (A) (A) (A) (A)
                 (A) (A) (A) (A) (A) (A) (A) (A) (A) (A) (A) (A)
                 (A) (A) (A) (A) (A) (A) (A) (A) (A) (A) (A) (A)
                 (A) (A) (A) (A) (A) (A) (A) (A) (A) (A) (A) (A)
                 (A) (A) (A) (A) (A) (A) (A) (A) (A) (A) (A) (A)
                 (A) (A) (A) (A) (A) (A) (A) (A) (A) (A) (A) (A)
                 (A) (A) (A) (A) (A) (A) (A) (A) (A) (A) (A) (A)
                 (A) (A) (A) (A) (A) (A) (A) (A) (A) (A) (A) (A)
                 (A) (A) (A) (A) (A) (A) (A) (A) (A) (A) (A) (A)
                 (A) (A) (A) (A) (A) (A) (A) (A) (A) (A) (A) (A)
                 (A) (A) (A) (A) (A) (A) (A) (A) (A) (A) (A) (A)
                 (A) (A) (A) (A) (A) (A) (A) (A) (A) (A) (A) (A)
                 (A) (A) (A) (A) (A) (A) (A) (A) (A) (A) (A) (A)
                 (A) (A) (A) (A) (A) (A) (A) (A) (A) (A) (A) (A)
                 (A) (A) (A) (A) (A) (A) (A) (A) (A) (A) (A) (A)
                 (A) (A) (A) (A) (A) (A) (A) (A) (A) (A) (A) (A)
                 (A) (A) (A) (A) (A) (A) (A) (A) (A) (A) (A) (A)
                 (A) (A) (A) (A) (A) (A) (A) (A) (A) (A) (A) (A)
                 (A) (A) (A) (A) (A) (A) (A) (A) (A) (A) (A) (A)
                 (A) (A)
 Beta  Orbitals:
       Occupied  (A) (A) (A) (A) (A) (A) (A) (A) (A) (A) (A) (A)
                 (A) (A) (A) (A) (A) (A) (A) (A) (A) (A) (A) (A)
                 (A) (A) (A) (A) (A)
       Virtual   (A) (A) (A) (A) (A) (A) (A) (A) (A) (A) (A) (A)
                 (A) (A) (A) (A) (A) (A) (A) (A) (A) (A) (A) (A)
                 (A) (A) (A) (A) (A) (A) (A) (A) (A) (A) (A) (A)
                 (A) (A) (A) (A) (A) (A) (A) (A) (A) (A) (A) (A)
                 (A) (A) (A) (A) (A) (A) (A) (A) (A) (A) (A) (A)
                 (A) (A) (A) (A) (A) (A) (A) (A) (A) (A) (A) (A)
                 (A) (A) (A) (A) (A) (A) (A) (A) (A) (A) (A) (A)
                 (A) (A) (A) (A) (A) (A) (A) (A) (A) (A) (A) (A)
                 (A) (A) (A) (A) (A) (A) (A) (A) (A) (A) (A) (A)
                 (A) (A) (A) (A) (A) (A) (A) (A) (A) (A) (A) (A)
                 (A) (A) (A) (A) (A) (A) (A) (A) (A) (A) (A) (A)
                 (A) (A) (A) (A) (A) (A) (A) (A) (A) (A) (A) (A)
                 (A) (A) (A) (A) (A) (A) (A) (A) (A) (A) (A) (A)
                 (A) (A) (A) (A) (A) (A) (A) (A) (A) (A) (A) (A)
                 (A) (A) (A) (A) (A) (A) (A) (A) (A) (A) (A) (A)
                 (A) (A) (A) (A) (A) (A) (A) (A) (A) (A) (A) (A)
                 (A) (A) (A) (A) (A) (A) (A) (A) (A) (A) (A) (A)
                 (A) (A) (A) (A) (A) (A) (A) (A) (A) (A) (A) (A)
                 (A) (A) (A) (A) (A) (A) (A) (A) (A) (A) (A) (A)
                 (A) (A) (A) (A) (A) (A) (A) (A) (A) (A) (A) (A)
                 (A) (A) (A) (A) (A) (A) (A) (A) (A) (A) (A) (A)
                 (A) (A) (A) (A) (A) (A) (A) (A) (A) (A) (A) (A)
                 (A) (A) (A) (A) (A) (A) (A) (A) (A) (A) (A) (A)
                 (A) (A) (A) (A) (A) (A) (A) (A) (A) (A) (A) (A)
                 (A) (A) (A) (A) (A) (A) (A) (A) (A) (A) (A) (A)
                 (A) (A) (A) (A) (A) (A) (A) (A) (A) (A) (A) (A)
                 (A) (A) (A) (A) (A) (A) (A) (A) (A) (A) (A) (A)
                 (A) (A) (A) (A) (A) (A) (A) (A) (A) (A) (A) (A)
                 (A) (A) (A) (A) (A) (A) (A) (A) (A) (A) (A) (A)
                 (A) (A) (A) (A) (A) (A) (A) (A) (A) (A) (A) (A)
                 (A) (A) (A)
 The electronic state is 2-A.
 Alpha  occ. eigenvalues --  -19.78504 -19.78335 -10.65977 -10.63634 -10.61669
 Alpha  occ. eigenvalues --  -10.60518 -10.59820  -1.27202  -1.01961  -0.92351
 Alpha  occ. eigenvalues --   -0.84567  -0.77661  -0.73701  -0.67622  -0.60675
 Alpha  occ. eigenvalues --   -0.55694  -0.54765  -0.53948  -0.51399  -0.50001
 Alpha  occ. eigenvalues --   -0.49818  -0.46431  -0.44275  -0.43961  -0.40680
 Alpha  occ. eigenvalues --   -0.39736  -0.39086  -0.36695  -0.36097  -0.29942
 Alpha virt. eigenvalues --    0.07852   0.08643   0.10105   0.11556   0.13086
 Alpha virt. eigenvalues --    0.13419   0.14120   0.14908   0.15650   0.17214
 Alpha virt. eigenvalues --    0.18591   0.18762   0.19617   0.21381   0.22113
 Alpha virt. eigenvalues --    0.23723   0.27641   0.29779   0.30288   0.31805
 Alpha virt. eigenvalues --    0.32214   0.33348   0.33983   0.35039   0.36781
 Alpha virt. eigenvalues --    0.36934   0.42209   0.45173   0.46019   0.46595
 Alpha virt. eigenvalues --    0.47645   0.48518   0.50882   0.51349   0.52122
 Alpha virt. eigenvalues --    0.52313   0.52789   0.53287   0.53885   0.54290
 Alpha virt. eigenvalues --    0.54730   0.55920   0.56667   0.57280   0.57888
 Alpha virt. eigenvalues --    0.58776   0.60205   0.62456   0.65246   0.67479
 Alpha virt. eigenvalues --    0.68731   0.70644   0.73173   0.74575   0.75820
 Alpha virt. eigenvalues --    0.76865   0.80575   0.82171   0.83608   0.85436
 Alpha virt. eigenvalues --    0.86722   0.88210   0.91425   0.92730   0.93282
 Alpha virt. eigenvalues --    0.94808   0.95474   0.97151   0.98584   0.99106
 Alpha virt. eigenvalues --    1.03936   1.04947   1.05494   1.07244   1.08547
 Alpha virt. eigenvalues --    1.10793   1.11366   1.12138   1.14564   1.15317
 Alpha virt. eigenvalues --    1.16472   1.16827   1.17149   1.18690   1.19223
 Alpha virt. eigenvalues --    1.21063   1.21558   1.24172   1.24982   1.26241
 Alpha virt. eigenvalues --    1.26938   1.27211   1.28408   1.29517   1.33848
 Alpha virt. eigenvalues --    1.35251   1.35891   1.37123   1.38405   1.38835
 Alpha virt. eigenvalues --    1.39880   1.40872   1.42508   1.44132   1.44671
 Alpha virt. eigenvalues --    1.45806   1.48330   1.49367   1.50959   1.52834
 Alpha virt. eigenvalues --    1.53848   1.56067   1.58932   1.59960   1.62976
 Alpha virt. eigenvalues --    1.64511   1.65494   1.67954   1.69285   1.73666
 Alpha virt. eigenvalues --    1.75806   1.79618   1.80336   1.82851   1.88988
 Alpha virt. eigenvalues --    1.95940   1.99737   2.05599   2.14472   2.21168
 Alpha virt. eigenvalues --    2.21728   2.28505   2.34561   2.36448   2.38991
 Alpha virt. eigenvalues --    2.40940   2.41333   2.44083   2.45861   2.47831
 Alpha virt. eigenvalues --    2.49108   2.50679   2.54072   2.54843   2.57156
 Alpha virt. eigenvalues --    2.60641   2.63600   2.66027   2.68178   2.69155
 Alpha virt. eigenvalues --    2.69948   2.70924   2.72661   2.76030   2.78836
 Alpha virt. eigenvalues --    2.81478   2.83079   2.83847   2.85058   2.88011
 Alpha virt. eigenvalues --    2.90370   2.91155   2.91742   2.93350   2.94037
 Alpha virt. eigenvalues --    2.95262   2.97914   2.98937   3.02361   3.03556
 Alpha virt. eigenvalues --    3.05560   3.05847   3.07498   3.09398   3.11966
 Alpha virt. eigenvalues --    3.12749   3.14838   3.15652   3.16095   3.16629
 Alpha virt. eigenvalues --    3.17994   3.18267   3.19011   3.20870   3.21499
 Alpha virt. eigenvalues --    3.22219   3.22708   3.23858   3.25114   3.26676
 Alpha virt. eigenvalues --    3.30459   3.33138   3.34094   3.34315   3.37861
 Alpha virt. eigenvalues --    3.38876   3.40302   3.41306   3.41595   3.43610
 Alpha virt. eigenvalues --    3.45978   3.47668   3.48498   3.49940   3.52001
 Alpha virt. eigenvalues --    3.52790   3.54088   3.55538   3.57669   3.57877
 Alpha virt. eigenvalues --    3.60596   3.60724   3.61661   3.63273   3.65553
 Alpha virt. eigenvalues --    3.67098   3.69232   3.71451   3.72301   3.75352
 Alpha virt. eigenvalues --    3.76906   3.79860   3.81984   3.83424   3.85435
 Alpha virt. eigenvalues --    3.86389   3.88194   3.88932   3.90523   3.91553
 Alpha virt. eigenvalues --    3.93228   3.93856   3.94852   3.95957   3.96937
 Alpha virt. eigenvalues --    3.97720   3.99011   4.01342   4.03884   4.04764
 Alpha virt. eigenvalues --    4.06137   4.08314   4.09710   4.10165   4.11873
 Alpha virt. eigenvalues --    4.13187   4.13478   4.14814   4.17028   4.18283
 Alpha virt. eigenvalues --    4.18882   4.21405   4.21867   4.24252   4.25663
 Alpha virt. eigenvalues --    4.26427   4.27190   4.29610   4.31519   4.31772
 Alpha virt. eigenvalues --    4.32429   4.34788   4.36982   4.37343   4.37959
 Alpha virt. eigenvalues --    4.41728   4.43720   4.45142   4.46041   4.46980
 Alpha virt. eigenvalues --    4.48414   4.51838   4.53400   4.58111   4.61093
 Alpha virt. eigenvalues --    4.63985   4.65108   4.68258   4.72752   4.77149
 Alpha virt. eigenvalues --    4.78144   4.80937   4.82337   4.83626   4.86788
 Alpha virt. eigenvalues --    4.88774   4.91716   4.94715   4.97197   4.99537
 Alpha virt. eigenvalues --    5.00700   5.01692   5.02747   5.03643   5.05162
 Alpha virt. eigenvalues --    5.08295   5.09506   5.12070   5.12802   5.13937
 Alpha virt. eigenvalues --    5.15272   5.18885   5.22593   5.25627   5.29627
 Alpha virt. eigenvalues --    5.30320   5.32107   5.33392   5.35949   5.37010
 Alpha virt. eigenvalues --    5.38258   5.39578   5.40281   5.42945   5.47061
 Alpha virt. eigenvalues --    5.49767   5.51509   5.53765   5.54768   5.59053
 Alpha virt. eigenvalues --    5.60470   5.64058   5.65882   5.68173   5.69092
 Alpha virt. eigenvalues --    5.71025   5.72309   5.78128   5.80087   5.88594
 Alpha virt. eigenvalues --    5.92936   5.96958   6.01924   6.06701   6.07873
 Alpha virt. eigenvalues --    6.09016   6.10035   6.12545   6.18271   6.26123
 Alpha virt. eigenvalues --    6.31944   6.37953   6.42361   6.64681   6.74305
 Alpha virt. eigenvalues --    6.77127   6.83449   6.96534   7.06077   7.08977
 Alpha virt. eigenvalues --    7.19890   7.42591   7.45243   7.58401   7.76094
 Alpha virt. eigenvalues --    9.89105  10.61340  12.63377  12.83850  13.29130
 Alpha virt. eigenvalues --   13.44447  13.74158
  Beta  occ. eigenvalues --  -19.78370 -19.76707 -10.65986 -10.62385 -10.61723
  Beta  occ. eigenvalues --  -10.60506 -10.59822  -1.25338  -0.99035  -0.91554
  Beta  occ. eigenvalues --   -0.83120  -0.77252  -0.72133  -0.66909  -0.57546
  Beta  occ. eigenvalues --   -0.54518  -0.54272  -0.53495  -0.50749  -0.49739
  Beta  occ. eigenvalues --   -0.47266  -0.44785  -0.43793  -0.42980  -0.40352
  Beta  occ. eigenvalues --   -0.39247  -0.38976  -0.35282  -0.33194
  Beta virt. eigenvalues --   -0.04391   0.08004   0.08716   0.10336   0.11672
  Beta virt. eigenvalues --    0.13416   0.13773   0.14271   0.15080   0.15676
  Beta virt. eigenvalues --    0.17283   0.18784   0.18852   0.19716   0.21993
  Beta virt. eigenvalues --    0.22524   0.23872   0.27994   0.30456   0.30678
  Beta virt. eigenvalues --    0.32028   0.32523   0.33650   0.34349   0.35396
  Beta virt. eigenvalues --    0.37141   0.37660   0.42927   0.45305   0.46358
  Beta virt. eigenvalues --    0.46949   0.47823   0.48714   0.51063   0.51902
  Beta virt. eigenvalues --    0.52367   0.52662   0.53383   0.53885   0.54495
  Beta virt. eigenvalues --    0.54532   0.55339   0.56073   0.57295   0.58014
  Beta virt. eigenvalues --    0.58553   0.59214   0.60659   0.62820   0.65400
  Beta virt. eigenvalues --    0.67763   0.69172   0.70864   0.73562   0.75299
  Beta virt. eigenvalues --    0.76271   0.77036   0.80811   0.82312   0.83808
  Beta virt. eigenvalues --    0.85646   0.87258   0.88717   0.91540   0.92850
  Beta virt. eigenvalues --    0.93406   0.94969   0.95618   0.97441   0.98856
  Beta virt. eigenvalues --    0.99275   1.04089   1.05076   1.05596   1.07329
  Beta virt. eigenvalues --    1.09070   1.10982   1.11987   1.12416   1.14724
  Beta virt. eigenvalues --    1.15526   1.16643   1.16914   1.17233   1.18952
  Beta virt. eigenvalues --    1.19892   1.21553   1.22179   1.24275   1.25147
  Beta virt. eigenvalues --    1.26475   1.27345   1.27640   1.28745   1.29591
  Beta virt. eigenvalues --    1.33980   1.35446   1.36161   1.37176   1.38487
  Beta virt. eigenvalues --    1.38963   1.39975   1.41011   1.42781   1.44383
  Beta virt. eigenvalues --    1.44828   1.46077   1.48815   1.49557   1.51319
  Beta virt. eigenvalues --    1.53383   1.54238   1.56400   1.59287   1.60236
  Beta virt. eigenvalues --    1.63053   1.64753   1.65666   1.68253   1.70005
  Beta virt. eigenvalues --    1.74214   1.76290   1.79891   1.80872   1.83142
  Beta virt. eigenvalues --    1.91505   1.96449   2.00281   2.06758   2.14772
  Beta virt. eigenvalues --    2.21863   2.23586   2.29171   2.34843   2.36578
  Beta virt. eigenvalues --    2.39137   2.41176   2.42179   2.44514   2.46084
  Beta virt. eigenvalues --    2.48252   2.49567   2.50857   2.54510   2.55447
  Beta virt. eigenvalues --    2.57281   2.60965   2.63921   2.66292   2.68447
  Beta virt. eigenvalues --    2.69486   2.70137   2.71262   2.73253   2.76305
  Beta virt. eigenvalues --    2.79604   2.81812   2.83225   2.84075   2.85306
  Beta virt. eigenvalues --    2.88194   2.90994   2.91294   2.91976   2.93862
  Beta virt. eigenvalues --    2.94849   2.95423   2.98080   2.99100   3.02496
  Beta virt. eigenvalues --    3.04483   3.05864   3.06409   3.07995   3.09958
  Beta virt. eigenvalues --    3.12238   3.12987   3.15117   3.15804   3.16447
  Beta virt. eigenvalues --    3.17072   3.18357   3.18535   3.19193   3.21293
  Beta virt. eigenvalues --    3.21743   3.22555   3.22883   3.24106   3.25986
  Beta virt. eigenvalues --    3.27300   3.30574   3.33640   3.34442   3.34592
  Beta virt. eigenvalues --    3.37866   3.38984   3.40981   3.41336   3.42102
  Beta virt. eigenvalues --    3.43814   3.46276   3.47837   3.49234   3.50481
  Beta virt. eigenvalues --    3.52135   3.53332   3.54183   3.56073   3.57906
  Beta virt. eigenvalues --    3.58133   3.60747   3.61010   3.61794   3.63475
  Beta virt. eigenvalues --    3.65914   3.67197   3.69491   3.71676   3.72556
  Beta virt. eigenvalues --    3.75634   3.77118   3.80005   3.82175   3.83690
  Beta virt. eigenvalues --    3.85578   3.86489   3.88236   3.89156   3.90525
  Beta virt. eigenvalues --    3.91898   3.93307   3.93915   3.94947   3.96139
  Beta virt. eigenvalues --    3.97022   3.97950   3.99160   4.01493   4.03876
  Beta virt. eigenvalues --    4.04918   4.06377   4.08297   4.09606   4.10286
  Beta virt. eigenvalues --    4.11937   4.13224   4.13723   4.14919   4.17181
  Beta virt. eigenvalues --    4.18336   4.18936   4.21568   4.21963   4.24347
  Beta virt. eigenvalues --    4.25712   4.26462   4.27375   4.29923   4.31847
  Beta virt. eigenvalues --    4.32265   4.32712   4.34937   4.37152   4.37507
  Beta virt. eigenvalues --    4.38155   4.41885   4.43895   4.45432   4.46298
  Beta virt. eigenvalues --    4.47179   4.48577   4.52123   4.54024   4.58438
  Beta virt. eigenvalues --    4.61609   4.64659   4.65653   4.68713   4.73010
  Beta virt. eigenvalues --    4.77650   4.78465   4.81091   4.82499   4.83788
  Beta virt. eigenvalues --    4.87126   4.89251   4.92110   4.94901   4.97548
  Beta virt. eigenvalues --    4.99701   5.00810   5.01947   5.02930   5.03759
  Beta virt. eigenvalues --    5.05322   5.08379   5.09888   5.12348   5.13181
  Beta virt. eigenvalues --    5.14570   5.15498   5.19770   5.23048   5.26183
  Beta virt. eigenvalues --    5.29892   5.30577   5.32468   5.33631   5.36124
  Beta virt. eigenvalues --    5.37540   5.38467   5.39995   5.40512   5.43488
  Beta virt. eigenvalues --    5.47316   5.49881   5.51564   5.54063   5.54854
  Beta virt. eigenvalues --    5.59585   5.60665   5.64251   5.65975   5.68725
  Beta virt. eigenvalues --    5.69363   5.71174   5.72971   5.78443   5.80374
  Beta virt. eigenvalues --    5.89945   5.92988   5.97246   6.03052   6.06830
  Beta virt. eigenvalues --    6.07986   6.09404   6.10705   6.12746   6.18535
  Beta virt. eigenvalues --    6.26596   6.33975   6.38433   6.43757   6.65689
  Beta virt. eigenvalues --    6.76172   6.79827   6.84731   6.98231   7.07785
  Beta virt. eigenvalues --    7.09719   7.22151   7.42899   7.47317   7.60247
  Beta virt. eigenvalues --    7.76646   9.89991  10.62387  12.64002  12.84044
  Beta virt. eigenvalues --   13.29398  13.44464  13.74159
          Condensed to atoms (all electrons):
               1          2          3          4          5          6
     1  C    4.599388   0.392727   0.396404   0.407712   0.304315  -0.046175
     2  H    0.392727   0.685477  -0.033801  -0.061114  -0.050317  -0.002557
     3  H    0.396404  -0.033801   0.591988  -0.029008  -0.026981   0.006857
     4  H    0.407712  -0.061114  -0.029008   0.624635  -0.037519   0.004623
     5  O    0.304315  -0.050317  -0.026981  -0.037519   7.944226   0.069687
     6  O   -0.046175  -0.002557   0.006857   0.004623   0.069687   8.073824
     7  H    0.001442   0.004434  -0.000377   0.000196  -0.028972   0.198490
     8  C   -0.003568   0.000997   0.000296  -0.000177   0.005551  -0.081057
     9  C    0.000317   0.000189  -0.000010  -0.000045  -0.002349   0.003391
    10  H    0.000086  -0.000332  -0.000000   0.000056   0.000377   0.000524
    11  H    0.000443  -0.001229  -0.000107   0.000092   0.000804  -0.000309
    12  C   -0.000089  -0.000499   0.000166  -0.000010  -0.003862   0.000338
    13  H   -0.000006   0.000019  -0.000002  -0.000002  -0.000077   0.000099
    14  H    0.000029  -0.000002  -0.000007  -0.000005  -0.000274   0.002872
    15  C   -0.000007  -0.000025   0.000001   0.000002   0.000189  -0.000154
    16  H   -0.000889  -0.000036  -0.000385   0.000301   0.014051  -0.002200
    17  H    0.000028   0.000097   0.000017  -0.000010  -0.000361   0.000147
    18  H   -0.000001  -0.000000   0.000001   0.000000   0.000003  -0.000003
    19  H    0.000000   0.000000   0.000000  -0.000000  -0.000008  -0.000001
    20  H   -0.000001  -0.000000   0.000000   0.000000   0.000020  -0.000024
               7          8          9         10         11         12
     1  C    0.001442  -0.003568   0.000317   0.000086   0.000443  -0.000089
     2  H    0.004434   0.000997   0.000189  -0.000332  -0.001229  -0.000499
     3  H   -0.000377   0.000296  -0.000010  -0.000000  -0.000107   0.000166
     4  H    0.000196  -0.000177  -0.000045   0.000056   0.000092  -0.000010
     5  O   -0.028972   0.005551  -0.002349   0.000377   0.000804  -0.003862
     6  O    0.198490  -0.081057   0.003391   0.000524  -0.000309   0.000338
     7  H    0.419954   0.219571  -0.010509  -0.007919  -0.009297  -0.003259
     8  C    0.219571   5.146842   0.325173   0.408173   0.398926  -0.046892
     9  C   -0.010509   0.325173   4.868554  -0.035150  -0.039375   0.346295
    10  H   -0.007919   0.408173  -0.035150   0.537371  -0.027925   0.006492
    11  H   -0.009297   0.398926  -0.039375  -0.027925   0.565235  -0.005226
    12  C   -0.003259  -0.046892   0.346295   0.006492  -0.005226   4.887091
    13  H    0.002324  -0.034926   0.398610  -0.004626  -0.002318  -0.036967
    14  H   -0.003413  -0.033248   0.409003  -0.003423   0.006733  -0.031765
    15  C    0.000240   0.005178  -0.048601  -0.000298  -0.000065   0.343850
    16  H    0.001526  -0.003569  -0.031821   0.000092   0.000010   0.408904
    17  H   -0.000402  -0.003785  -0.040344  -0.000118   0.003589   0.412621
    18  H    0.000005  -0.000362   0.007318   0.000018  -0.000014  -0.035384
    19  H   -0.000030  -0.000038  -0.004203  -0.000013   0.000002  -0.038723
    20  H   -0.000020   0.000102  -0.004463  -0.000000  -0.000011  -0.037519
              13         14         15         16         17         18
     1  C   -0.000006   0.000029  -0.000007  -0.000889   0.000028  -0.000001
     2  H    0.000019  -0.000002  -0.000025  -0.000036   0.000097  -0.000000
     3  H   -0.000002  -0.000007   0.000001  -0.000385   0.000017   0.000001
     4  H   -0.000002  -0.000005   0.000002   0.000301  -0.000010   0.000000
     5  O   -0.000077  -0.000274   0.000189   0.014051  -0.000361   0.000003
     6  O    0.000099   0.002872  -0.000154  -0.002200   0.000147  -0.000003
     7  H    0.002324  -0.003413   0.000240   0.001526  -0.000402   0.000005
     8  C   -0.034926  -0.033248   0.005178  -0.003569  -0.003785  -0.000362
     9  C    0.398610   0.409003  -0.048601  -0.031821  -0.040344   0.007318
    10  H   -0.004626  -0.003423  -0.000298   0.000092  -0.000118   0.000018
    11  H   -0.002318   0.006733  -0.000065   0.000010   0.003589  -0.000014
    12  C   -0.036967  -0.031765   0.343850   0.408904   0.412621  -0.035384
    13  H    0.619534  -0.037327  -0.004348   0.006484  -0.006352  -0.000141
    14  H   -0.037327   0.589605  -0.004061  -0.004767   0.007619  -0.000101
    15  C   -0.004348  -0.004061   4.847920  -0.029845  -0.037042   0.413919
    16  H    0.006484  -0.004767  -0.029845   0.562129  -0.036602  -0.004361
    17  H   -0.006352   0.007619  -0.037042  -0.036602   0.623031  -0.004957
    18  H   -0.000141  -0.000101   0.413919  -0.004361  -0.004957   0.582102
    19  H    0.004223  -0.000333   0.408769   0.006733  -0.005579  -0.031975
    20  H   -0.000376   0.003012   0.411327  -0.004931   0.007539  -0.029606
              19         20
     1  C    0.000000  -0.000001
     2  H    0.000000  -0.000000
     3  H    0.000000   0.000000
     4  H   -0.000000   0.000000
     5  O   -0.000008   0.000020
     6  O   -0.000001  -0.000024
     7  H   -0.000030  -0.000020
     8  C   -0.000038   0.000102
     9  C   -0.004203  -0.004463
    10  H   -0.000013  -0.000000
    11  H    0.000002  -0.000011
    12  C   -0.038723  -0.037519
    13  H    0.004223  -0.000376
    14  H   -0.000333   0.003012
    15  C    0.408769   0.411327
    16  H    0.006733  -0.004931
    17  H   -0.005579   0.007539
    18  H   -0.031975  -0.029606
    19  H    0.608432  -0.034814
    20  H   -0.034814   0.594089
          Atomic-Atomic Spin Densities.
               1          2          3          4          5          6
     1  C   -0.005170   0.003811   0.000631  -0.003151   0.000876  -0.001951
     2  H    0.003811   0.001872  -0.000698  -0.001442  -0.000799   0.003649
     3  H    0.000631  -0.000698  -0.001886   0.001026   0.000060  -0.000202
     4  H   -0.003151  -0.001442   0.001026   0.004821  -0.000724  -0.000420
     5  O    0.000876  -0.000799   0.000060  -0.000724   0.046756  -0.040544
     6  O   -0.001951   0.003649  -0.000202  -0.000420  -0.040544   0.582972
     7  H    0.001172  -0.003308   0.000038   0.001350   0.009577  -0.050258
     8  C    0.000961  -0.003939   0.000086   0.001112   0.011399  -0.089737
     9  C   -0.000122   0.000216  -0.000005  -0.000051  -0.001259   0.007304
    10  H   -0.000036   0.000205  -0.000002  -0.000045  -0.000236   0.002490
    11  H   -0.000307   0.001130  -0.000009  -0.000148  -0.001049   0.003462
    12  C    0.000027  -0.000006  -0.000006   0.000003  -0.000043   0.000274
    13  H    0.000011  -0.000027   0.000001   0.000003   0.000074  -0.000600
    14  H   -0.000011   0.000024  -0.000000  -0.000008  -0.000174   0.001546
    15  C    0.000001  -0.000002   0.000000   0.000000   0.000027  -0.000043
    16  H    0.000005  -0.000039   0.000027   0.000016   0.000444  -0.001025
    17  H   -0.000002   0.000014  -0.000002  -0.000002  -0.000062   0.000080
    18  H    0.000000  -0.000000  -0.000000   0.000000   0.000000   0.000000
    19  H    0.000000  -0.000000  -0.000000   0.000000   0.000000  -0.000000
    20  H    0.000000  -0.000000  -0.000000   0.000000   0.000001  -0.000002
               7          8          9         10         11         12
     1  C    0.001172   0.000961  -0.000122  -0.000036  -0.000307   0.000027
     2  H   -0.003308  -0.003939   0.000216   0.000205   0.001130  -0.000006
     3  H    0.000038   0.000086  -0.000005  -0.000002  -0.000009  -0.000006
     4  H    0.001350   0.001112  -0.000051  -0.000045  -0.000148   0.000003
     5  O    0.009577   0.011399  -0.001259  -0.000236  -0.001049  -0.000043
     6  O   -0.050258  -0.089737   0.007304   0.002490   0.003462   0.000274
     7  H   -0.102362   0.063820  -0.002250   0.002334   0.002392   0.000103
     8  C    0.063820   0.708986  -0.033553   0.002783   0.003625  -0.002112
     9  C   -0.002250  -0.033553  -0.024155   0.001302   0.002399   0.004248
    10  H    0.002334   0.002783   0.001302  -0.024038   0.003364   0.000046
    11  H    0.002392   0.003625   0.002399   0.003364  -0.025790  -0.000242
    12  C    0.000103  -0.002112   0.004248   0.000046  -0.000242   0.005047
    13  H    0.000358  -0.013967   0.009184  -0.001808  -0.001823  -0.002910
    14  H   -0.000802  -0.006716   0.004450   0.001013   0.000341   0.002193
    15  C    0.000121   0.000283  -0.000021  -0.000019  -0.000118  -0.000902
    16  H    0.000767   0.002216  -0.001057  -0.000090  -0.000307  -0.000632
    17  H   -0.000183  -0.000247   0.000734   0.000051   0.000394   0.000012
    18  H   -0.000001   0.000000  -0.000063  -0.000001   0.000001   0.000063
    19  H   -0.000001  -0.000003   0.000032   0.000000  -0.000002  -0.000014
    20  H    0.000001   0.000022   0.000014  -0.000001  -0.000001  -0.000241
              13         14         15         16         17         18
     1  C    0.000011  -0.000011   0.000001   0.000005  -0.000002   0.000000
     2  H   -0.000027   0.000024  -0.000002  -0.000039   0.000014  -0.000000
     3  H    0.000001  -0.000000   0.000000   0.000027  -0.000002  -0.000000
     4  H    0.000003  -0.000008   0.000000   0.000016  -0.000002   0.000000
     5  O    0.000074  -0.000174   0.000027   0.000444  -0.000062   0.000000
     6  O   -0.000600   0.001546  -0.000043  -0.001025   0.000080   0.000000
     7  H    0.000358  -0.000802   0.000121   0.000767  -0.000183  -0.000001
     8  C   -0.013967  -0.006716   0.000283   0.002216  -0.000247   0.000000
     9  C    0.009184   0.004450  -0.000021  -0.001057   0.000734  -0.000063
    10  H   -0.001808   0.001013  -0.000019  -0.000090   0.000051  -0.000001
    11  H   -0.001823   0.000341  -0.000118  -0.000307   0.000394   0.000001
    12  C   -0.002910   0.002193  -0.000902  -0.000632   0.000012   0.000063
    13  H    0.053989  -0.005787   0.000668   0.000490  -0.000915  -0.000007
    14  H   -0.005787   0.012703  -0.000473  -0.000510   0.000189  -0.000007
    15  C    0.000668  -0.000473  -0.000507   0.000485  -0.000001   0.000140
    16  H    0.000490  -0.000510   0.000485   0.000041  -0.000210  -0.000022
    17  H   -0.000915   0.000189  -0.000001  -0.000210  -0.000181  -0.000014
    18  H   -0.000007  -0.000007   0.000140  -0.000022  -0.000014  -0.000371
    19  H    0.000178  -0.000032   0.000055   0.000014   0.000010  -0.000011
    20  H    0.000047  -0.000055   0.000177   0.000053  -0.000024  -0.000010
              19         20
     1  C    0.000000   0.000000
     2  H   -0.000000  -0.000000
     3  H   -0.000000  -0.000000
     4  H    0.000000   0.000000
     5  O    0.000000   0.000001
     6  O   -0.000000  -0.000002
     7  H   -0.000001   0.000001
     8  C   -0.000003   0.000022
     9  C    0.000032   0.000014
    10  H    0.000000  -0.000001
    11  H   -0.000002  -0.000001
    12  C   -0.000014  -0.000241
    13  H    0.000178   0.000047
    14  H   -0.000032  -0.000055
    15  C    0.000055   0.000177
    16  H    0.000014   0.000053
    17  H    0.000010  -0.000024
    18  H   -0.000011  -0.000010
    19  H   -0.000196   0.000063
    20  H    0.000063   0.000035
 Mulliken charges and spin densities:
               1          2
     1  C   -0.052155  -0.003255
     2  H    0.065974   0.000663
     3  H    0.094948  -0.000940
     4  H    0.090274   0.002342
     5  O   -0.188505   0.024325
     6  O   -0.228372   0.416996
     7  H    0.216016  -0.077133
     8  C   -0.303187   0.645019
     9  C   -0.141981  -0.032650
    10  H    0.126615  -0.012685
    11  H    0.110041  -0.012687
    12  C   -0.165561   0.004909
    13  H    0.096176   0.037160
    14  H    0.099852   0.007885
    15  C   -0.306948  -0.000127
    16  H    0.119178   0.000664
    17  H    0.080865  -0.000357
    18  H    0.103539  -0.000302
    19  H    0.087556   0.000094
    20  H    0.095676   0.000079
 Sum of Mulliken charges =  -0.00000   1.00000
 Mulliken charges and spin densities with hydrogens summed into heavy atoms:
               1          2
     1  C    0.199040  -0.001191
     5  O   -0.188505   0.024325
     6  O   -0.012356   0.339864
     8  C   -0.066531   0.619646
     9  C    0.054047   0.012394
    12  C    0.034481   0.005217
    15  C   -0.020177  -0.000256
 APT charges:
               1
     1  C    0.454828
     2  H   -0.042834
     3  H   -0.007766
     4  H   -0.034803
     5  O   -0.457329
     6  O    0.151648
     7  H   -0.332916
     8  C    0.450423
     9  C   -0.036918
    10  H   -0.066251
    11  H   -0.064280
    12  C    0.088861
    13  H   -0.037191
    14  H   -0.013650
    15  C    0.088752
    16  H   -0.007172
    17  H   -0.049046
    18  H   -0.030661
    19  H   -0.029067
    20  H   -0.024628
 Sum of APT charges =   0.00000
 APT charges with hydrogens summed into heavy atoms:
               1
     1  C    0.369425
     5  O   -0.457329
     6  O   -0.181269
     8  C    0.319892
     9  C   -0.087759
    12  C    0.032643
    15  C    0.004396
 Electronic spatial extent (au):  <R**2>=           1299.2391
 Charge=             -0.0000 electrons
 Dipole moment (field-independent basis, Debye):
    X=             -0.3370    Y=              0.6751    Z=              2.1082  Tot=              2.2392
 Quadrupole moment (field-independent basis, Debye-Ang):
   XX=            -43.4037   YY=            -44.8095   ZZ=            -46.9976
   XY=             -1.9496   XZ=              4.0019   YZ=             -0.4069
 Traceless Quadrupole moment (field-independent basis, Debye-Ang):
   XX=              1.6666   YY=              0.2608   ZZ=             -1.9274
   XY=             -1.9496   XZ=              4.0019   YZ=             -0.4069
 Octapole moment (field-independent basis, Debye-Ang**2):
  XXX=             33.9459  YYY=              0.9797  ZZZ=             -2.5197  XYY=              5.7535
  XXY=             -5.0823  XXZ=              7.2709  XZZ=              3.3827  YZZ=             -0.7324
  YYZ=             -0.0818  XYZ=             -1.2865
 Hexadecapole moment (field-independent basis, Debye-Ang**3):
 XXXX=          -1197.9792 YYYY=           -333.1013 ZZZZ=           -146.3346 XXXY=            -31.0694
 XXXZ=              2.5060 YYYX=             -7.2094 YYYZ=             -7.3320 ZZZX=             -1.6873
 ZZZY=              0.2788 XXYY=           -264.1862 XXZZ=           -233.5764 YYZZ=            -84.1713
 XXYZ=             -4.1220 YYXZ=              0.7623 ZZXY=             -3.0930
 N-N= 3.211765552823D+02 E-N=-1.456051453476D+03  KE= 3.465009947014D+02
  Exact polarizability: 104.268 -12.618  81.314  -2.597   1.537  67.106
 Approx polarizability:  88.334  -9.504  86.762  -3.956   0.630  80.680
                          Isotropic Fermi Contact Couplings
        Atom                 a.u.       MegaHertz       Gauss      10(-4) cm-1
     1  C(13)             -0.00356      -4.00322      -1.42845      -1.33533
     2  H(1)               0.00227      10.16169       3.62594       3.38957
     3  H(1)              -0.00012      -0.51900      -0.18519      -0.17312
     4  H(1)               0.00052       2.33913       0.83466       0.78025
     5  O(17)              0.01391      -8.43461      -3.00968      -2.81348
     6  O(17)              0.04766     -28.89338     -10.30988      -9.63779
     7  H(1)              -0.02265    -101.24134     -36.12543     -33.77048
     8  C(13)              0.09425     105.95228      37.80641      35.34188
     9  C(13)             -0.01193     -13.40836      -4.78444      -4.47255
    10  H(1)              -0.00420     -18.75976      -6.69395      -6.25758
    11  H(1)              -0.00366     -16.37207      -5.84196      -5.46114
    12  C(13)              0.00374       4.19994       1.49864       1.40095
    13  H(1)               0.01983      88.63458      31.62702      29.56531
    14  H(1)               0.00505      22.56071       8.05022       7.52544
    15  C(13)             -0.00095      -1.06943      -0.38160      -0.35672
    16  H(1)              -0.00021      -0.93827      -0.33480      -0.31297
    17  H(1)              -0.00021      -0.95187      -0.33965      -0.31751
    18  H(1)              -0.00009      -0.38336      -0.13679      -0.12788
    19  H(1)               0.00013       0.58502       0.20875       0.19514
    20  H(1)               0.00007       0.33266       0.11870       0.11096
 --------------------------------------------------------
       Center         ----  Spin Dipole Couplings  ----
                      3XX-RR        3YY-RR        3ZZ-RR
 --------------------------------------------------------
     1   Atom        0.000714     -0.001077      0.000363
     2   Atom        0.000465     -0.004231      0.003766
     3   Atom        0.000104      0.000166     -0.000270
     4   Atom        0.006128     -0.003400     -0.002727
     5   Atom        0.065708     -0.090802      0.025094
     6   Atom        0.295896     -0.708151      0.412255
     7   Atom        0.063494     -0.044670     -0.018824
     8   Atom        0.184396     -0.116404     -0.067992
     9   Atom        0.031476     -0.015946     -0.015530
    10   Atom       -0.019408      0.043243     -0.023836
    11   Atom       -0.014228     -0.028185      0.042413
    12   Atom        0.001073      0.004488     -0.005560
    13   Atom        0.009535     -0.002908     -0.006627
    14   Atom        0.004435     -0.006819      0.002384
    15   Atom        0.001522      0.000313     -0.001835
    16   Atom        0.000263      0.005824     -0.006087
    17   Atom        0.000024      0.001947     -0.001971
    18   Atom        0.000529      0.000722     -0.001252
    19   Atom        0.001735      0.000058     -0.001793
    20   Atom        0.001153      0.000021     -0.001173
 --------------------------------------------------------
                        XY            XZ            YZ
 --------------------------------------------------------
     1   Atom       -0.004889      0.006592     -0.002056
     2   Atom       -0.003060      0.005557     -0.001755
     3   Atom       -0.003602      0.002681     -0.002998
     4   Atom       -0.003148      0.004337     -0.001104
     5   Atom       -0.191533     -0.210914      0.194411
     6   Atom       -0.479989     -1.260524      0.502538
     7   Atom       -0.119665     -0.139954      0.087291
     8   Atom       -0.369680     -0.404772      0.269990
     9   Atom       -0.000589     -0.006748      0.003786
    10   Atom        0.002133     -0.022914     -0.014259
    11   Atom       -0.023586      0.009268     -0.009244
    12   Atom        0.008324     -0.002311     -0.003114
    13   Atom       -0.001943     -0.000679      0.003198
    14   Atom        0.000892      0.009853      0.002317
    15   Atom        0.001738     -0.000740      0.000391
    16   Atom        0.005239     -0.000848      0.000469
    17   Atom        0.003976     -0.003143     -0.003445
    18   Atom        0.001554     -0.000169     -0.000008
    19   Atom        0.001905     -0.000124      0.000134
    20   Atom        0.001857      0.000989      0.001003
 --------------------------------------------------------


 ---------------------------------------------------------------------------------
              Anisotropic Spin Dipole Couplings in Principal Axis System
 ---------------------------------------------------------------------------------

       Atom             a.u.   MegaHertz   Gauss  10(-4) cm-1        Axes

              Baa    -0.0070    -0.934    -0.333    -0.312  0.7304  0.4183 -0.5400
     1 C(13)  Bbb    -0.0025    -0.340    -0.121    -0.113 -0.0142  0.7998  0.6002
              Bcc     0.0095     1.274     0.455     0.425  0.6829 -0.4306  0.5901
 
              Baa    -0.0059    -3.139    -1.120    -1.047  0.5385  0.8274 -0.1597
     2 H(1)   Bbb    -0.0028    -1.519    -0.542    -0.507 -0.5899  0.5054  0.6298
              Bcc     0.0087     4.658     1.662     1.554  0.6018 -0.2449  0.7602
 
              Baa    -0.0035    -1.873    -0.668    -0.625  0.6141  0.7638  0.1986
     3 H(1)   Bbb    -0.0027    -1.448    -0.517    -0.483 -0.5234  0.2059  0.8268
              Bcc     0.0062     3.320     1.185     1.108 -0.5906  0.6117 -0.5263
 
              Baa    -0.0046    -2.450    -0.874    -0.817 -0.4466 -0.4817  0.7540
     4 H(1)   Bbb    -0.0042    -2.250    -0.803    -0.750  0.0244  0.8358  0.5484
              Bcc     0.0088     4.699     1.677     1.568  0.8944 -0.2633  0.3615
 
              Baa    -0.2424    17.541     6.259     5.851  0.2332  0.8648 -0.4446
     5 O(17)  Bbb    -0.1643    11.886     4.241     3.965  0.7317  0.1451  0.6660
              Bcc     0.4067   -29.426   -10.500    -9.816  0.6405 -0.4807 -0.5989
 
              Baa    -0.9078    65.687    23.439    21.911  0.7250  0.0097  0.6887
     6 O(17)  Bbb    -0.9001    65.130    23.240    21.725  0.1766  0.9639 -0.1995
              Bcc     1.8079  -130.817   -46.679   -43.636 -0.6657  0.2662  0.6971
 
              Baa    -0.1243   -66.296   -23.656   -22.114  0.6941  0.3598  0.6235
     7 H(1)   Bbb    -0.1199   -63.979   -22.829   -21.341  0.0934  0.8138 -0.5735
              Bcc     0.2442   130.275    46.485    43.455  0.7138 -0.4563 -0.5313
 
              Baa    -0.3666   -49.190   -17.552   -16.408  0.7037  0.4278  0.5672
     8 C(13)  Bbb    -0.3633   -48.746   -17.394   -16.260  0.0471  0.7685 -0.6381
              Bcc     0.7298    97.935    34.946    32.668  0.7089 -0.4758 -0.5207
 
              Baa    -0.0199    -2.671    -0.953    -0.891  0.0875 -0.6820  0.7260
     9 C(13)  Bbb    -0.0126    -1.684    -0.601    -0.562  0.1129  0.7309  0.6730
              Bcc     0.0325     4.355     1.554     1.453  0.9897 -0.0231 -0.1410
 
              Baa    -0.0456   -24.334    -8.683    -8.117  0.6498  0.1052  0.7528
    10 H(1)   Bbb    -0.0013    -0.685    -0.244    -0.229  0.7520 -0.2334 -0.6165
              Bcc     0.0469    25.019     8.928     8.346  0.1109  0.9667 -0.2308
 
              Baa    -0.0458   -24.460    -8.728    -8.159  0.5937  0.8044  0.0219
    11 H(1)   Bbb    -0.0005    -0.274    -0.098    -0.092  0.7741 -0.5635 -0.2885
              Bcc     0.0464    24.734     8.826     8.251  0.2197 -0.1882  0.9572
 
              Baa    -0.0064    -0.866    -0.309    -0.289 -0.0473  0.3066  0.9507
    12 C(13)  Bbb    -0.0057    -0.762    -0.272    -0.254  0.7865 -0.5753  0.2247
              Bcc     0.0121     1.627     0.581     0.543  0.6158  0.7583 -0.2140
 
              Baa    -0.0085    -4.522    -1.614    -1.508 -0.0218 -0.5037  0.8636
    13 H(1)   Bbb    -0.0014    -0.768    -0.274    -0.256  0.1809  0.8476  0.4989
              Bcc     0.0099     5.290     1.888     1.765  0.9833 -0.1671 -0.0727
 
              Baa    -0.0079    -4.231    -1.510    -1.411  0.3509  0.7844 -0.5114
    14 H(1)   Bbb    -0.0056    -3.002    -1.071    -1.001 -0.5810  0.6107  0.5380
              Bcc     0.0136     7.234     2.581     2.413  0.7344  0.1083  0.6701
 
              Baa    -0.0023    -0.305    -0.109    -0.102  0.3328 -0.3554  0.8734
    15 C(13)  Bbb    -0.0005    -0.069    -0.025    -0.023 -0.4625  0.7457  0.4797
              Bcc     0.0028     0.374     0.134     0.125  0.8218  0.5636 -0.0838
 
              Baa    -0.0064    -3.392    -1.210    -1.131  0.2315 -0.1367  0.9632
    16 H(1)   Bbb    -0.0026    -1.397    -0.498    -0.466  0.8250 -0.4971 -0.2688
              Bcc     0.0090     4.789     1.709     1.597  0.5155  0.8569 -0.0023
 
              Baa    -0.0044    -2.324    -0.829    -0.775  0.4514  0.1915  0.8715
    17 H(1)   Bbb    -0.0030    -1.619    -0.578    -0.540 -0.6906  0.6934  0.2053
              Bcc     0.0074     3.943     1.407     1.315  0.5650  0.6946 -0.4453
 
              Baa    -0.0013    -0.691    -0.246    -0.230  0.2475 -0.1871  0.9507
    18 H(1)   Bbb    -0.0009    -0.477    -0.170    -0.159  0.6848 -0.6603 -0.3082
              Bcc     0.0022     1.167     0.416     0.389  0.6854  0.7273 -0.0353
 
              Baa    -0.0018    -0.983    -0.351    -0.328  0.1491 -0.2173  0.9646
    19 H(1)   Bbb    -0.0011    -0.606    -0.216    -0.202 -0.5255  0.8090  0.2635
              Bcc     0.0030     1.589     0.567     0.530  0.8376  0.5462 -0.0064
 
              Baa    -0.0017    -0.932    -0.333    -0.311  0.0575 -0.5377  0.8412
    20 H(1)   Bbb    -0.0012    -0.665    -0.237    -0.222  0.6561 -0.6147 -0.4378
              Bcc     0.0030     1.598     0.570     0.533  0.7524  0.5771  0.3175
 

 ---------------------------------------------------------------------------------

 Calling FoFJK, ICntrl=  10100127 FMM=F ISym2X=0 I1Cent= 0 IOpClX= 1 NMat=1 NMatS=1 NMatT=0.
 ***** Axes restored to original set *****
 -------------------------------------------------------------------
 Center     Atomic                   Forces (Hartrees/Bohr)
 Number     Number              X              Y              Z
 -------------------------------------------------------------------
      1        6          -0.000000883   -0.000000326    0.000000439
      2        1           0.000003797    0.000001131    0.000001105
      3        1           0.000000219   -0.000000032    0.000000112
      4        1           0.000000759   -0.000000282   -0.000000515
      5        8          -0.000008040   -0.000005427   -0.000001272
      6        8          -0.000069125    0.000085103    0.000134398
      7        1          -0.000001243   -0.000002041    0.000004277
      8        6           0.000090059   -0.000045314   -0.000299191
      9        6          -0.000008177   -0.000211805    0.000412258
     10        1           0.000001647    0.000000799   -0.000000857
     11        1           0.000000195   -0.000000697   -0.000000657
     12        6          -0.000014131    0.000175828   -0.000253428
     13        1          -0.000000287   -0.000001865    0.000000205
     14        1          -0.000000315    0.000000989    0.000002647
     15        6           0.000000798    0.000002258    0.000003359
     16        1           0.000005294    0.000006094   -0.000001159
     17        1          -0.000001848   -0.000003965   -0.000000904
     18        1           0.000000221    0.000000356   -0.000000970
     19        1          -0.000001192   -0.000001163    0.000000502
     20        1           0.000002254    0.000000358   -0.000000348
 -------------------------------------------------------------------
 Cartesian Forces:  Max     0.000412258 RMS     0.000085660
 FormGI is forming the generalized inverse of G from B-inverse, IUseBI=4.

 GradGradGradGradGradGradGradGradGradGradGradGradGradGradGradGradGradGrad
 Berny optimization.
 Internal  Forces:  Max     0.000314566 RMS     0.000065627
 Search for a saddle point.
 Step number   1 out of a maximum of  120
 All quantities printed in internal units (Hartrees-Bohrs-Radians)
 Swapping is turned off.
 Second derivative matrix not updated -- analytic derivatives used.
 ITU=  0
     Eigenvalues ---   -0.07573   0.00029   0.00196   0.00228   0.00285
     Eigenvalues ---    0.00619   0.01563   0.02517   0.03023   0.03184
     Eigenvalues ---    0.03353   0.03618   0.03770   0.03911   0.03980
     Eigenvalues ---    0.04587   0.04610   0.06871   0.07013   0.07416
     Eigenvalues ---    0.08487   0.08528   0.09038   0.09938   0.10850
     Eigenvalues ---    0.12222   0.12648   0.13059   0.13455   0.15304
     Eigenvalues ---    0.16061   0.16599   0.17622   0.18382   0.18619
     Eigenvalues ---    0.22443   0.25325   0.28641   0.29822   0.31180
     Eigenvalues ---    0.31901   0.32259   0.33025   0.33506   0.33587
     Eigenvalues ---    0.33824   0.33867   0.34210   0.34450   0.34684
     Eigenvalues ---    0.34720   0.35066   0.35516   0.40249
 Eigenvectors required to have negative eigenvalues:
                          R7        R6        R5        A8        D13
   1                   -0.67918   0.67365  -0.15337   0.09301   0.08048
                          D14       D15       D12       D11       D16
   1                   -0.07799  -0.07751   0.06670   0.06622  -0.06373
 RFO step:  Lambda0=1.771872600D-09 Lambda=-7.10285341D-05.
 Linear search not attempted -- option 19 set.
 Iteration  1 RMS(Cart)=  0.11781943 RMS(Int)=  0.00651862
 Iteration  2 RMS(Cart)=  0.00875917 RMS(Int)=  0.00008990
 Iteration  3 RMS(Cart)=  0.00008069 RMS(Int)=  0.00008331
 Iteration  4 RMS(Cart)=  0.00000000 RMS(Int)=  0.00008331
 Variable       Old X    -DE/DX   Delta X   Delta X   Delta X     New X
                                 (Linear)    (Quad)   (Total)
    R1        2.06217   0.00000   0.00000  -0.00004  -0.00004   2.06213
    R2        2.05617   0.00000   0.00000  -0.00000  -0.00000   2.05617
    R3        2.05729  -0.00000   0.00000   0.00007   0.00007   2.05736
    R4        2.68317  -0.00000   0.00000  -0.00020  -0.00020   2.68297
    R5        2.66318  -0.00000   0.00000   0.00041   0.00041   2.66359
    R6        2.21013  -0.00000   0.00000  -0.00087  -0.00087   2.20926
    R7        2.56475   0.00000   0.00000   0.00040   0.00040   2.56515
    R8        2.83757   0.00001   0.00000  -0.00052  -0.00052   2.83704
    R9        2.05245  -0.00000   0.00000  -0.00038  -0.00038   2.05208
   R10        2.05435  -0.00000   0.00000   0.00036   0.00036   2.05471
   R11        2.88575  -0.00000   0.00000   0.00006   0.00006   2.88581
   R12        2.07517   0.00000   0.00000   0.00022   0.00022   2.07540
   R13        2.06448  -0.00000   0.00000  -0.00010  -0.00010   2.06438
   R14        2.88014   0.00000   0.00000   0.00003   0.00003   2.88018
   R15        2.05998   0.00000   0.00000  -0.00038  -0.00038   2.05960
   R16        2.06518   0.00000   0.00000  -0.00009  -0.00009   2.06509
   R17        2.05781  -0.00000   0.00000  -0.00004  -0.00004   2.05778
   R18        2.06105   0.00000   0.00000   0.00000   0.00000   2.06105
   R19        2.06015   0.00000   0.00000   0.00009   0.00009   2.06024
    A1        1.91784   0.00000   0.00000  -0.00001  -0.00001   1.91783
    A2        1.91689   0.00000   0.00000  -0.00033  -0.00033   1.91656
    A3        1.93461  -0.00000   0.00000   0.00029   0.00029   1.93490
    A4        1.92510   0.00000   0.00000  -0.00024  -0.00024   1.92486
    A5        1.83695   0.00000   0.00000  -0.00023  -0.00023   1.83672
    A6        1.93122  -0.00000   0.00000   0.00052   0.00052   1.93175
    A7        1.88198  -0.00000   0.00000  -0.00017  -0.00017   1.88180
    A8        1.82933  -0.00000   0.00000  -0.00329  -0.00329   1.82604
    A9        1.84252   0.00002   0.00000  -0.00310  -0.00320   1.83932
   A10        1.75687   0.00012   0.00000   0.01556   0.01564   1.77251
   A11        1.79082  -0.00013   0.00000  -0.01416  -0.01411   1.77671
   A12        2.03299   0.00000   0.00000   0.00173   0.00158   2.03457
   A13        2.02351  -0.00001   0.00000  -0.00185  -0.00207   2.02144
   A14        1.97025   0.00000   0.00000   0.00155   0.00184   1.97209
   A15        1.98168   0.00001   0.00000   0.00054   0.00054   1.98222
   A16        1.89757  -0.00001   0.00000  -0.00023  -0.00023   1.89734
   A17        1.91284   0.00001   0.00000   0.00035   0.00035   1.91319
   A18        1.90482   0.00011   0.00000   0.00033   0.00033   1.90515
   A19        1.91635  -0.00012   0.00000  -0.00126  -0.00126   1.91509
   A20        1.84550   0.00000   0.00000   0.00026   0.00026   1.84576
[...]
 618170,0.01473270,-0.00558562,-0.00019849,0.00011558,0.00130795,0.0006
 2935,-0.00021095,0.00050482,0.00005440,-0.00022866,0.00060386,0.000085
 80,0.00054739,0.00977783,-0.01179143,-0.01455493,-0.02695415,0.0585942
 5,-0.02106993,0.00608564,-0.04893585,0.03858564,0.45051290,0.00713984,
 0.00245658,-0.00170589,-0.00130010,-0.00121828,0.00014460,-0.00063924,
 0.00007048,0.00023957,-0.00084419,-0.00055586,-0.00070185,-0.01245546,
 0.01295455,0.02234317,0.04671357,-0.08888475,0.03791594,-0.03864999,0.
 05352281,-0.05801066,0.09114800,0.36562807,-0.00815122,-0.00222778,0.0
 0181666,0.00142133,0.00158243,-0.00038335,0.00047396,-0.00006196,-0.00
 020177,0.00098912,0.00066193,0.00045109,0.01215483,-0.01430514,-0.0175
 5495,-0.04035372,0.08091310,-0.02925031,0.03581091,-0.06668193,0.02614
 990,-0.11505051,0.17843495,0.44422555,0.00072195,0.00054197,-0.0002741
 9,-0.00013963,-0.00006496,0.00001271,-0.00011814,0.00000523,0.00005044
 ,-0.00008788,-0.00005370,-0.00014168,-0.00181641,0.00121391,0.00283843
 ,0.00413076,-0.00751692,0.00158841,-0.01443205,0.00905019,-0.01061343,
 -0.18832345,-0.04967328,-0.01568915,0.50897469,-0.00219244,-0.00105987
 ,0.00048092,0.00022002,0.00042250,-0.00002877,0.00032823,-0.00005631,-
 0.00010096,0.00022156,0.00016911,0.00022046,0.00395678,-0.00336587,-0.
 00576435,-0.00486061,0.00933165,0.00175704,0.01338908,-0.00887386,0.01
 010546,-0.04325861,-0.07727529,-0.02308636,-0.00842102,0.48782581,0.00
 179719,0.00094864,-0.00059449,-0.00035106,-0.00037327,0.00004741,-0.00
 018183,-0.00001504,0.00009924,-0.00022032,-0.00023697,-0.00011954,-0.0
 0252286,0.00235061,0.00384113,0.00372320,-0.00776738,-0.00023348,-0.01
 346192,0.00779228,-0.00982755,-0.02244178,-0.02733161,-0.08009265,-0.0
 3194154,-0.03251697,0.54136262,0.00103280,0.00013230,-0.00009455,-0.00
 001128,-0.00014242,0.00018012,-0.00006683,-0.00001392,0.00002526,-0.00
 011006,0.00001019,-0.00008994,-0.00144287,0.00170449,0.00098082,0.0017
 6691,-0.00409497,0.00083442,-0.00230694,0.00866675,-0.00031428,-0.0493
 2485,-0.01073472,0.00472578,0.00391673,-0.02542384,-0.01799326,0.04828
 355,-0.00133788,-0.00011919,0.00017688,0.00023439,0.00017474,-0.000108
 43,0.00006495,-0.00000094,-0.00002821,0.00018836,0.00002587,0.00009568
 ,0.00183759,-0.00217525,-0.00221566,-0.00316910,0.00695911,-0.00008419
 ,0.00449691,-0.01731293,-0.00064496,-0.01613656,-0.21971504,-0.1507139
 8,0.00309095,-0.00353338,-0.00258536,0.01435293,0.23105064,0.00137447,
 0.00013993,-0.00011655,-0.00035704,-0.00022723,0.00001785,-0.00011445,
 0.00001404,0.00002695,-0.00017432,-0.00007216,-0.00007077,-0.00197292,
 0.00293370,0.00243634,0.00384760,-0.00746713,0.00146742,-0.00489492,0.
 01405030,-0.00295643,0.00273676,-0.13777117,-0.13670354,0.00127083,-0.
 00650373,-0.00317719,0.00158219,0.15404263,0.14656556,0.00050061,0.000
 01013,-0.00000801,-0.00048115,0.00019685,-0.00014455,-0.00009760,-0.00
 007271,0.00007151,-0.00005015,0.00000003,-0.00009804,-0.00082253,0.000
 84465,0.00217379,0.00254857,-0.00427412,-0.00033146,-0.00066411,0.0056
 9140,-0.00705000,-0.15873833,-0.01294904,0.13511573,-0.01598081,-0.002
 73935,0.02528372,0.00260152,-0.00113666,-0.00088784,0.17363524,-0.0007
 3539,-0.00010875,0.00002931,0.00072018,0.00002482,0.00017562,0.0001817
 5,0.00004331,-0.00006007,0.00009320,0.00006200,0.00007793,0.00156063,-
 0.00206819,-0.00405204,-0.00419179,0.00754353,-0.00000971,-0.00039691,
 -0.01016386,0.01493333,-0.02105271,-0.03765776,0.00044118,-0.00402075,
 0.00184400,0.00599077,0.01575371,0.00404206,-0.01977598,0.01491477,0.0
 3559741,0.00106393,0.00065674,-0.00031271,-0.00059597,-0.00019265,0.00
 009031,-0.00015542,-0.00014207,0.00009367,-0.00011554,-0.00016457,-0.0
 0001932,-0.00164194,0.00185878,0.00292953,0.00227377,-0.00546922,0.000
 13142,0.00256569,0.00668862,-0.01233924,0.14507420,-0.00634029,-0.2042
 4892,-0.00677769,-0.00077191,0.00854077,0.01032577,0.00314831,-0.00990
 918,-0.15076492,0.00101321,0.21347072,0.00013198,-0.00003114,0.0000087
 3,-0.00000695,0.00000255,-0.00004510,-0.00002841,0.00002697,-0.0000006
 8,-0.00001309,-0.00000629,0.00000891,-0.00063245,0.00052574,0.00020609
 ,0.00076651,-0.00036440,-0.00011977,-0.00011894,-0.00052536,-0.0002298
 0,-0.00016830,-0.02949020,-0.01995352,-0.07898907,0.00567599,0.0065778
 5,-0.00631819,-0.00241187,-0.00228725,0.00116367,0.00023409,-0.0004418
 5,0.52356564,0.00008061,0.00000025,-0.00045369,-0.00001737,-0.00007173
 ,0.00005264,0.00006086,0.00001451,-0.00000559,-0.00020683,-0.00006185,
 0.00005443,-0.00014922,-0.00081521,-0.00190625,-0.00178658,0.00219641,
 0.00055633,0.00175795,-0.00153349,0.00235284,-0.00615343,-0.00919646,-
 0.00893050,0.00786472,-0.15452385,-0.04710881,0.00039292,0.00038519,0.
 00061061,0.00147469,0.00050954,0.00019395,-0.03027382,0.51574733,-0.00
 076018,-0.00023591,0.00028638,0.00014293,0.00018555,0.00002000,0.00009
 519,-0.00005722,-0.00001532,0.00017676,0.00009544,0.00002874,0.0011336
 5,-0.00050049,-0.00066536,-0.00055663,0.00143144,0.00008481,0.00079508
 ,-0.00211332,0.00098447,-0.00538523,-0.00716932,-0.00790159,0.00776432
 ,-0.04885660,-0.11080139,0.00027453,-0.00046059,0.00117317,0.00110488,
 0.00170736,0.00102816,-0.01678141,-0.05881316,0.55895379,0.00094004,0.
 00025609,-0.00015959,-0.00010653,-0.00014721,0.00000562,-0.00011204,0.
 00003096,0.00003372,-0.00011105,-0.00006829,-0.00007750,-0.00130388,0.
 00131544,0.00193112,0.00144013,-0.00223658,-0.00132114,-0.00323984,0.0
 0090271,-0.00177559,-0.02104550,0.01683022,-0.01621694,-0.09713506,0.0
 8643649,-0.05947562,0.00088538,-0.00067597,0.00060703,0.00079424,-0.00
 085064,0.00072462,-0.00098863,0.00163537,-0.00055999,0.11042611,0.0006
 3022,0.00022675,-0.00002581,-0.00010977,-0.00009657,-0.00000768,-0.000
 11377,0.00001067,0.00003475,-0.00003206,-0.00003520,-0.00006239,-0.000
 98251,0.00121163,0.00176218,0.00140466,-0.00285893,-0.00068581,-0.0022
 3817,0.00356340,-0.00251537,-0.00323359,0.00598396,-0.00400032,0.07786
 140,-0.16629450,0.08770244,0.00082489,0.00007830,0.00047959,0.00056227
 ,-0.00003633,0.00021543,0.01362659,-0.02391663,0.01414537,-0.09065543,
 0.18799420,0.00020168,0.00006674,-0.00000106,-0.00002231,-0.00001133,-
 0.00001452,-0.00004839,0.00000966,0.00001131,-0.00001866,-0.00000854,-
 0.00002905,-0.00022906,0.00018295,0.00043945,0.00038833,-0.00061309,-0
 .00019186,-0.00113225,0.00002270,0.00015855,-0.00597165,0.00357468,-0.
 00450664,-0.05636321,0.09150854,-0.10875303,0.00016059,-0.00055002,0.0
 0046905,-0.00031981,0.00011612,-0.00004037,0.00842865,-0.01582156,0.00
 830943,0.06687461,-0.09643974,0.11874168,-0.00016440,-0.00033809,0.000
 07918,0.00006321,0.00008241,-0.00001341,0.00007146,0.00002515,-0.00002
 658,0.00000688,0.00006129,-0.00001245,0.00020397,0.00028069,-0.0000479
 8,0.00027217,0.00042873,-0.00052808,0.00011527,-0.00113737,0.00131920,
 -0.02071914,-0.00420330,0.02576383,-0.11430825,-0.02162699,0.11091415,
 0.00101322,0.00026496,-0.00084484,-0.00502920,-0.00250525,-0.00174338,
 -0.00116991,0.00003771,0.00081102,0.00806334,0.00276823,-0.01282661,0.
 13016722,0.00028176,0.00000106,0.00002644,-0.00004972,-0.00001874,-0.0
 0001790,-0.00006429,0.00001706,0.00001246,-0.00003087,0.00000257,-0.00
 003214,-0.00040071,0.00038107,0.00058848,0.00025204,-0.00073555,-0.000
 45114,-0.00020382,0.00091433,-0.00063933,-0.00411744,-0.00196113,0.009
 70620,-0.02351994,-0.05519261,0.03427346,0.00041516,0.00001056,0.00018
 781,-0.00184896,0.00039504,-0.00121067,0.01452380,0.00362445,-0.025692
 07,-0.01189173,-0.00477207,0.02006449,0.02558025,0.05934230,-0.0001392
 4,-0.00002776,0.00000853,0.00002473,0.00003121,-0.00002022,-0.00000200
 ,0.00002027,-0.00001229,0.00001320,0.00001257,0.00000606,0.00017917,-0
 .00020125,-0.00007634,0.00010517,-0.00015166,0.00027506,-0.00011990,0.
 00006201,0.00033110,-0.00527000,-0.00102276,0.00826200,0.11192885,0.03
 342248,-0.22736745,0.00087612,0.00028557,0.00046136,-0.00259456,-0.000
 07871,0.00051355,0.00917928,0.00214872,-0.01681821,0.00872754,0.003515
 45,-0.01525391,-0.12200425,-0.03471757,0.24836425,-0.00012792,-0.00000
 607,-0.00000095,0.00001316,0.00001222,0.00000811,0.00001714,-0.0000076
 3,-0.00000512,0.00001580,0.00000538,0.00001429,0.00017006,-0.00019164,
 -0.00026111,-0.00018302,0.00032966,0.00016028,0.00008034,-0.00028899,0
 .00018546,-0.00031594,0.00145604,0.00059742,-0.00054745,-0.00392307,-0
 .00253682,0.00066913,0.00038453,0.00047010,0.00010622,0.00000978,-0.00
 019141,-0.18177214,-0.03277265,-0.02421550,0.00084394,0.00111946,0.000
 88822,0.00081301,0.00124800,0.00063019,0.48696760,-0.00007027,-0.00002
 793,0.00017922,-0.00000242,0.00001565,-0.00003796,-0.00002876,0.000009
 24,-0.00000730,0.00008616,0.00002720,-0.00000671,-0.00000551,0.0004667
 1,0.00092999,0.00077767,-0.00075404,-0.00043181,-0.00038336,0.00036616
 ,-0.00061160,0.00126723,-0.00544777,-0.00283055,-0.03008508,-0.0119773
 5,-0.00833858,-0.00174216,-0.00026483,-0.00069192,-0.00002772,0.000012
 46,0.00002314,-0.02988463,-0.09025109,-0.00660437,-0.00100438,0.001125
 93,0.00033162,0.00005313,0.00140740,0.00102020,-0.02706542,0.56683234,
 0.00014980,0.00004579,-0.00007435,-0.00004031,-0.00005035,-0.00002325,
 -0.00002573,0.00002222,0.00000123,-0.00004648,-0.00002873,0.00000236,-
 0.00019195,0.00012805,0.00019690,0.00010633,-0.00031674,-0.00006381,-0
 .00000615,0.00026343,-0.00015508,0.00105293,-0.00310002,-0.00204226,-0
 .01964836,-0.00788957,-0.00581939,-0.00122290,-0.00043393,0.00001126,-
 0.00032978,-0.00010536,0.00019721,-0.02276996,-0.00671295,-0.08577068,
 0.00048450,0.00127492,0.00081779,-0.00094514,0.00022016,0.00047078,-0.
 01975684,-0.00152484,0.56718053,-0.00039771,0.00001357,0.00022874,0.00
 004132,0.00002510,-0.00002443,-0.00000976,0.00000655,-0.00001864,0.000
 11672,0.00004652,0.00001707,-0.00054514,0.00013090,-0.00027528,-0.0000
 7217,-0.00037603,-0.00038828,0.00004896,0.00001681,-0.00025713,0.00076
 286,-0.00058427,0.00038225,-0.00023426,0.00008784,0.00031347,-0.000029
 86,0.00007023,0.00004579,-0.00004992,0.00007471,0.00009188,-0.10999248
 ,0.09091621,-0.06279327,0.00053649,-0.00035858,-0.00025864,-0.00022555
 ,0.00024831,-0.00018179,-0.01682378,0.02169270,-0.01669334,0.12143780,
 -0.00012802,-0.00006941,0.00019291,-0.00002224,0.00001258,-0.00002265,
 0.00001506,-0.00000403,-0.00002433,0.00010814,0.00003264,-0.00000833,0
 .00001750,0.00054299,0.00111829,0.00107745,-0.00059290,-0.00049908,-0.
 00087847,-0.00003719,-0.00079095,0.00147591,0.00042092,0.00147411,0.01
 230666,-0.02278269,0.01314767,-0.00007936,0.00042601,-0.00022016,-0.00
 023624,-0.00017767,0.00004938,0.08998705,-0.18234979,0.09539009,-0.000
 22045,-0.00424404,-0.00377347,0.00012474,0.00117041,0.00003200,-0.0069
 5766,0.00942222,-0.00712563,-0.09708510,0.20118498,0.00001692,0.000057
 63,-0.00004909,0.00004652,0.00000985,0.00002605,0.00006907,-0.00001528
 ,0.00000175,-0.00004904,-0.00000321,-0.00001276,-0.00111597,0.00022055
 ,-0.00052175,0.00019463,0.00015034,-0.00039250,-0.00016504,-0.00034865
 ,0.00020099,0.00074762,0.00043720,0.00087278,0.00909222,-0.01567748,0.
 00925169,0.00018836,0.00012844,-0.00002200,-0.00009448,0.00006306,-0.0
 0003565,-0.06333898,0.09700948,-0.11833232,0.00014276,-0.00441241,-0.0
 0116949,0.00023421,0.00068972,0.00096658,-0.00347431,0.00442569,-0.003
 83676,0.07168216,-0.10107216,0.12625389,-0.00003022,-0.00000776,-0.000
 00260,-0.00000465,-0.00000875,-0.00000283,-0.00000150,0.00000169,0.000
 00164,0.00000324,-0.00000268,0.00000432,0.00015957,-0.00006031,0.00006
 586,-0.00016444,0.00000163,-0.00004881,0.00008318,0.00000983,0.0000129
 8,0.00079287,0.00009044,-0.00102586,-0.00141436,0.00000351,0.00109585,
 0.00007187,0.00011754,-0.00001643,0.00026655,-0.00001169,0.00025584,-0
 .11277402,-0.02139958,0.10731981,-0.00018843,0.00004784,0.00015775,0.0
 0051210,0.00009430,-0.00024098,-0.01791069,-0.00662526,0.02667136,0.00
 835588,0.00214318,-0.01326887,0.12541769,-0.00002512,0.00003612,0.0000
 7470,0.00003051,0.00002475,0.00001428,0.00002837,-0.00002363,0.0000063
 5,0.00002530,0.00000313,-0.00001877,-0.00010490,0.00005301,-0.00016269
 ,0.00020481,0.00001689,0.00005413,-0.00002728,-0.00003489,-0.00001874,
 0.00124626,0.00124750,0.00029349,0.01468106,0.00270202,-0.02720820,0.0
 0014338,0.00005128,0.00032739,-0.00055314,0.00010002,0.00047599,-0.022
 07644,-0.05685120,0.03994834,0.00016164,0.00141140,0.00070475,-0.00003
 254,-0.00453819,-0.00381163,-0.00599814,-0.00261172,0.00932664,-0.0128
 6274,-0.00413140,0.02000125,0.02675521,0.06205028,0.00008188,0.0000885
 3,-0.00011478,-0.00005653,-0.00007709,-0.00003202,-0.00005508,0.000032
 13,-0.00000496,-0.00002898,-0.00003298,0.00003250,-0.00000884,-0.00007
 736,0.00030053,-0.00019900,-0.00025444,-0.00002859,0.00012619,0.000350
 62,-0.00024771,0.00110185,0.00082473,0.00053584,0.00915482,0.00255840,
 -0.01777872,-0.00032964,-0.00004508,0.00044391,-0.00103032,-0.00042716
 ,0.00007566,0.10825115,0.03899417,-0.22902372,-0.00004663,-0.00015344,
 0.00104407,-0.00024478,-0.00387624,-0.00067919,-0.00559585,-0.00188961
 ,0.00792177,0.00864142,0.00281631,-0.01459293,-0.11893671,-0.03851479,
 0.25003675,0.00010401,-0.00000967,0.00000392,-0.00001289,-0.00000817,-
 0.00001015,-0.00002942,0.00001183,0.00000331,-0.00000849,-0.00000150,-
 0.00000727,-0.00014407,0.00020836,0.00027014,0.00021161,-0.00034130,-0
 .00011328,-0.00010808,0.00029057,-0.00021984,0.00077912,-0.00193942,-0
 .00097686,-0.00661226,-0.00053728,-0.00051752,-0.00070869,-0.00018026,
 -0.00026742,0.00000003,0.00004873,0.00007803,0.00230763,-0.02779523,-0
 .01835964,-0.00005381,-0.00005982,0.00029717,-0.00000885,0.00018256,-0
 .00020339,-0.04758808,0.01013432,0.00664791,0.00134663,0.00074855,0.00
 005555,0.00135668,0.00029562,0.00071064,0.05182159,0.00016488,0.000005
 76,-0.00001349,-0.00001733,-0.00001521,-0.00000593,-0.00002829,0.00001
 172,0.00000745,-0.00002345,-0.00000771,-0.00001571,-0.00020026,0.00019
 076,0.00023517,0.00016339,-0.00036340,-0.00010607,-0.00016362,0.000341
 88,-0.00023669,0.00058019,-0.00066217,-0.00039151,-0.00296526,0.000743
 86,0.00006894,-0.00027975,-0.00007512,-0.00008327,-0.00006194,0.000022
 57,0.00001279,0.00153057,-0.00772898,-0.00421330,-0.00003658,0.0004964
 5,0.00011372,0.00012516,0.00005576,-0.00000459,0.00893569,-0.23256989,
 -0.12231696,-0.00016084,0.00064387,-0.00001759,-0.00001871,-0.00006905
 ,0.00045337,-0.00843689,0.25121068,0.00009485,-0.00000823,0.00000749,-
 0.00000884,0.00000108,-0.00000510,-0.00002342,0.00000437,0.00000805,-0
 .00000986,-0.00000227,-0.00001138,-0.00013616,0.00016637,0.00017898,0.
 00014553,-0.00026515,-0.00008305,-0.00008495,0.00025432,-0.00017164,0.
 00046648,-0.00076218,0.00032586,-0.00212827,0.00015009,0.00030511,-0.0
 0020092,-0.00002093,-0.00010149,-0.00011668,0.00000231,-0.00002909,0.0
 0119934,-0.00468328,-0.00453397,0.00011141,-0.00024946,0.00004153,-0.0
 0005061,0.00033299,0.00049477,0.00581285,-0.12224149,-0.12883324,0.000
 09971,0.00010413,-0.00023084,-0.00019483,0.00025991,0.00053526,-0.0054
 8663,0.13525171,0.13658748,0.00011582,0.00001436,-0.00007455,-0.000003
 99,-0.00001541,0.00001145,0.00000653,0.00000218,0.00000713,-0.00004988
 ,-0.00001629,-0.00000759,-0.00006746,-0.00014831,-0.00032811,-0.000301
 53,0.00022933,0.00014953,0.00023476,-0.00009106,0.00024514,0.00001536,
 0.00003326,0.00021077,0.00125404,0.00140545,0.00073723,0.00003228,-0.0
 0004968,-0.00000627,0.00001961,0.00004341,-0.00000270,-0.01709510,0.02
 322577,-0.01768540,0.00038458,-0.00097826,-0.00010722,-0.00000132,-0.0
 0014252,-0.00004525,-0.10882934,0.08888337,-0.06510016,-0.00543549,-0.
 00317366,-0.00112568,0.00112718,0.00041551,0.00073491,-0.00135820,0.00
 071531,-0.00012152,0.12126175,-0.00005020,-0.00001345,0.00000317,0.000
 00282,0.00000823,-0.00000177,-0.00000088,-0.00000263,-0.00000030,0.000
 00565,0.00000147,0.00000609,0.00007399,-0.00002768,-0.00005155,-0.0000
 3495,0.00002847,0.00002911,-0.00002681,-0.00004027,-0.00001600,-0.0001
 2680,0.00023621,0.00001167,-0.00028199,0.00146122,-0.00026494,0.000090
 28,0.00001226,0.00005071,0.00002704,0.00000079,-0.00000268,-0.00574836
 ,0.00775322,-0.00675907,0.00024212,0.00019670,0.00045110,0.00006782,-0
 .00005696,-0.00001260,0.08970373,-0.17714802,0.09511577,-0.00243485,0.
 00021948,-0.00116534,0.00090950,0.00043585,0.00000407,0.01264274,-0.01
 873072,0.01523442,-0.09746415,0.19037489,0.00001876,-0.00000068,-0.000
 01853,0.00000099,-0.00000185,0.00000676,0.00000575,-0.00000144,0.00000
 143,-0.00001153,-0.00000275,-0.00000163,0.00002844,-0.00010734,-0.0001
 7370,-0.00016627,0.00016318,0.00009581,0.00015805,-0.00011138,0.000143
 67,0.00003432,-0.00013624,-0.00001971,0.00020769,0.00083606,0.00007330
 ,-0.00002021,-0.00002397,-0.00002683,0.00006153,0.00003710,0.00000691,
 -0.00335889,0.00476188,-0.00425733,-0.00009641,-0.00056536,0.00001561,
 -0.00005615,0.00007400,-0.00011594,-0.06547350,0.09478598,-0.11866950,
 -0.00132568,-0.00090375,0.00095983,0.00014802,-0.00058997,0.00056042,0
 .00982295,-0.01303294,0.01039108,0.07427824,-0.10483470,0.12500960,0.0
 0002570,-0.00002559,0.00001877,0.00001251,0.00002036,0.00000928,0.0000
 1291,-0.00000894,0.00000532,-0.00000558,0.00000463,-0.00001530,-0.0000
 5640,0.00008215,-0.00004170,0.00009564,-0.00004162,-0.00002895,-0.0000
 6929,0.00005540,0.00000951,0.00003207,0.00005184,-0.00022816,0.0011409
 0,0.00125827,0.00120184,0.00004617,-0.00000533,-0.00011107,0.00027756,
 0.00013017,-0.00002289,-0.01786773,-0.00689209,0.02747910,-0.00002952,
 -0.00008364,-0.00009917,0.00032476,-0.00055618,-0.00086288,-0.11559805
 ,-0.02596961,0.11166428,0.00116945,0.00077695,0.00016233,-0.00565851,-
 0.00230738,-0.00227050,-0.00129448,0.00017773,0.00063253,0.00869041,0.
 00240329,-0.01425610,0.12875149,-0.00000663,-0.00000762,-0.00000774,0.
 00000222,0.00000198,0.00000612,0.00000876,-0.00000222,-0.00000131,-0.0
 0000272,0.00000125,-0.00000036,0.00004459,-0.00005532,-0.00009193,-0.0
 0008124,0.00008097,0.00003490,0.00003683,-0.00006550,0.00008065,-0.000
 07649,0.00005341,-0.00028903,-0.00001318,0.00043541,0.00147232,0.00002
 413,-0.00001933,-0.00002395,0.00017805,0.00001501,-0.00004229,-0.00532
 085,-0.00293062,0.00857184,-0.00002379,-0.00004513,0.00007068,-0.00005
 673,-0.00004677,-0.00052197,-0.02599320,-0.05863265,0.04320809,0.00053
 295,0.00031301,-0.00048108,-0.00203993,0.00012783,-0.00077412,0.014746
 22,0.00649893,-0.02352870,-0.01288860,-0.00470906,0.01965416,0.0309296
 0,0.05898641,-0.00004796,-0.00000414,0.00000264,0.00000373,0.00000070,
 -0.00000091,0.00000119,0.00000197,-0.00000535,0.00001090,0.00000418,0.
 00000883,0.00005672,-0.00003441,-0.00000957,0.00000270,0.00006881,0.00
 002241,0.00001650,-0.00007584,0.00002807,-0.00027914,0.00013716,0.0002
 6602,-0.00033121,0.00015725,0.00104359,0.00011175,0.00003781,0.0000111
 2,-0.00004070,-0.00007827,-0.00014343,-0.00453280,-0.00229924,0.007250
 94,0.00008650,-0.00001234,-0.00008855,0.00022267,0.00046083,0.00018951
 ,0.11274450,0.04352089,-0.23151150,0.00071400,0.00011562,0.00066255,-0
 .00199552,-0.00116242,0.00101589,0.00827237,0.00429489,-0.01487582,0.0
 0823004,0.00220285,-0.01398123,-0.12324625,-0.04733628,0.25011479\\0.,
 0.00000107,0.00000117,-0.00000034,0.00000072,-0.00000009,0.00000014,0.
 00000026,0.00000056,-0.00000016,0.00000056,0.00000049,-0.00000201,-0.0
 0000071,-0.00000106,0.00000118,-0.00000026,0.00000132,0.00000185,0.000
 00209,0.00000008,-0.00000155,-0.00000097,-0.00000006,-0.00000079,-0.00
 000015,0.00000041,0.00000018,0.00000035,-0.00000124,0.00000140,-0.0000
 0092,0.00000165,0.00000093,0.00000182,-0.00000531,0.00000031,-0.000000
 42,0.00000013,-0.00000138,-0.00000052,-0.00000036,0.00000041,-0.000001
 86,0.00000057,0.00000031,-0.00000019,0.00000312,-0.00000135,0.00000044
 ,-0.00000060,0.00000027,-0.00000036,-0.00000034,0.00000058,-0.00000051
 ,-0.00000016,0.00000004,-0.00000043,-0.00000027\\\@


 BLACK HOLES SUCK.
 Job cpu time:       4 days 10 hours 25 minutes 36.4 seconds.
 Elapsed time:       0 days  2 hours 41 minutes 50.5 seconds.
 File lengths (MBytes):  RWF= 138775 Int=      0 D2E=      0 Chk=     25 Scr=      1
 Normal termination of Gaussian 16 at Tue Jun 25 14:38:33 2019.
