 Entering Gaussian System, Link 0=g16
 Initial command:
 /ichec/packages/gaussian/16b01/l1.exe "/localscratch/347852/Gau-28572.inp" -scrdir="/localscratch/347852/"
 Entering Link 1 = /ichec/packages/gaussian/16b01/l1.exe PID=     29135.
  
 Copyright (c) 1988-2017, Gaussian, Inc.  All Rights Reserved.
  
 This is part of the Gaussian(R) 16 program.  It is based on
 the Gaussian(R) 09 system (copyright 2009, Gaussian, Inc.),
 the Gaussian(R) 03 system (copyright 2003, Gaussian, Inc.),
 the Gaussian(R) 98 system (copyright 1998, Gaussian, Inc.),
 the Gaussian(R) 94 system (copyright 1995, Gaussian, Inc.),
 the Gaussian 92(TM) system (copyright 1992, Gaussian, Inc.),
 the Gaussian 90(TM) system (copyright 1990, Gaussian, Inc.),
 the Gaussian 88(TM) system (copyright 1988, Gaussian, Inc.),
 the Gaussian 86(TM) system (copyright 1986, Carnegie Mellon
 University), and the Gaussian 82(TM) system (copyright 1983,
 Carnegie Mellon University). Gaussian is a federally registered
 trademark of Gaussian, Inc.
  
 This software contains proprietary and confidential information,
 including trade secrets, belonging to Gaussian, Inc.
  
 This software is provided under written license and may be
 used, copied, transmitted, or stored only in accord with that
 written license.
  
 The following legend is applicable only to US Government
 contracts under FAR:
  
                    RESTRICTED RIGHTS LEGEND
  
 Use, reproduction and disclosure by the US Government is
 subject to restrictions as set forth in subparagraphs (a)
 and (c) of the Commercial Computer Software - Restricted
 Rights clause in FAR 52.227-19.
  
 Gaussian, Inc.
 340 Quinnipiac St., Bldg. 40, Wallingford CT 06492
  
  
 ---------------------------------------------------------------
 Warning -- This program may not be used in any manner that
 competes with the business of Gaussian, Inc. or will provide
 assistance to any competitor of Gaussian, Inc.  The licensee
 of this program is prohibited from giving any competitor of
 Gaussian, Inc. access to this program.  By using this program,
 the user acknowledges that Gaussian, Inc. is engaged in the
 business of creating and licensing software in the field of
 computational chemistry and represents and warrants to the
 licensee that it is not a competitor of Gaussian, Inc. and that
 it will not use this program in any manner prohibited above.
 ---------------------------------------------------------------
  

 Cite this work as:
 Gaussian 16, Revision B.01,
 M. J. Frisch, G. W. Trucks, H. B. Schlegel, G. E. Scuseria, 
 M. A. Robb, J. R. Cheeseman, G. Scalmani, V. Barone, 
 G. A. Petersson, H. Nakatsuji, X. Li, M. Caricato, A. V. Marenich, 
 J. Bloino, B. G. Janesko, R. Gomperts, B. Mennucci, H. P. Hratchian, 
 J. V. Ortiz, A. F. Izmaylov, J. L. Sonnenberg, D. Williams-Young, 
 F. Ding, F. Lipparini, F. Egidi, J. Goings, B. Peng, A. Petrone, 
 T. Henderson, D. Ranasinghe, V. G. Zakrzewski, J. Gao, N. Rega, 
 G. Zheng, W. Liang, M. Hada, M. Ehara, K. Toyota, R. Fukuda, 
 J. Hasegawa, M. Ishida, T. Nakajima, Y. Honda, O. Kitao, H. Nakai, 
 T. Vreven, K. Throssell, J. A. Montgomery, Jr., J. E. Peralta, 
 F. Ogliaro, M. J. Bearpark, J. J. Heyd, E. N. Brothers, K. N. Kudin, 
 V. N. Staroverov, T. A. Keith, R. Kobayashi, J. Normand, 
 K. Raghavachari, A. P. Rendell, J. C. Burant, S. S. Iyengar, 
 J. Tomasi, M. Cossi, J. M. Millam, M. Klene, C. Adamo, R. Cammi, 
 J. W. Ochterski, R. L. Martin, K. Morokuma, O. Farkas, 
 J. B. Foresman, and D. J. Fox, Gaussian, Inc., Wallingford CT, 2016.
 
 ******************************************
 Gaussian 16:  ES64L-G16RevB.01 20-Dec-2017
                12-Jun-2019 
 ******************************************
 %mem=80GB
 %nproc=40
 Will use up to   40 processors via shared memory.
 ----------------------------------------------------------------------
 # opt=(calcfc,ts,noeigentest,maxcyc=500) freq=noraman uB2PLYPD3/cc-pvt
 z
 ----------------------------------------------------------------------
 1/5=1,6=500,10=4,11=1,18=20,38=1/1,3;
 2/9=110,12=2,17=6,18=5,40=1/2;
 3/5=16,6=1,11=2,25=1,30=1,71=2,74=-60,116=2,140=1/1,2,3;
 4//1;
 5/5=2,38=5/2;
 8/6=3,8=1,10=1,19=11,30=-1/1;
 9/15=3,16=-3/6;
 11/6=1,8=1,15=11,17=12,24=-1,27=1,28=-2,29=300,32=6,42=3/1,2,10;
 10/6=2,21=1/2;
 8/6=4,8=1,10=1,19=11,30=-1/11,4;
 10/5=1,20=4/2;
 11/12=2,14=11,16=1,17=2,28=-2,42=3,76=2/2,10,12;
 6/7=2,8=2,9=2,10=2/1;
 7/10=1,12=2,25=1,44=2/1,2,3,16;
 1/5=1,6=500,10=4,11=1,18=20/3(2);
 2/9=110/2;
 99//99;
 2/9=110/2;
 3/5=16,6=1,11=2,25=1,30=1,71=1,74=-60,116=2/1,2,3;
 4/5=5,16=3,69=1/1;
 5/5=2,38=5/2;
 8/6=4,10=1/1;
 9/15=2,16=-3/6;
 10/5=1/2;
 7/12=2/1,2,3,16;
 1/5=1,6=500,11=1,18=20/3(-8);
 2/9=110/2;
 6/7=2,8=2,9=2,10=2/1;
 99/9=10/99;
 -------------------
 Title Card Required
 -------------------
 Symbolic Z-matrix:
 Charge =  0 Multiplicity = 2
 C                    -1.20541  -1.16546  -0.43248 
 H                    -1.49557  -2.15878  -0.10378 
 H                    -1.31899  -1.00894  -1.50158 
 C                     1.67097   1.0331   -0.39165 
 H                     0.87678   1.05131  -1.13995 
 H                     1.73414   1.99709   0.10876 
 H                     2.62112   0.781    -0.86179 
 O                     1.36409   0.09054   0.62032 
 O                     1.27943  -1.14634   0.04761 
 H                     0.0869   -1.23446  -0.24607 
 C                    -1.60683  -0.06113   0.41492 
 C                    -1.86513   1.17489  -0.03023 
 H                    -1.65493  -0.25237   1.48104 
 H                    -1.82532   1.40801  -1.08778 
 H                    -2.1339    1.97515   0.64444 
 
 Add virtual bond connecting atoms H10        and O9         Dist= 2.33D+00.
 Add virtual bond connecting atoms H10        and C1         Dist= 2.47D+00.

 GradGradGradGradGradGradGradGradGradGradGradGradGradGradGradGradGradGrad
 Berny optimization.
 Initialization pass.
                           ----------------------------
                           !    Initial Parameters    !
                           ! (Angstroms and Degrees)  !
 --------------------------                            --------------------------
 ! Name  Definition              Value          Derivative Info.                !
 --------------------------------------------------------------------------------
 ! R1    R(1,2)                  1.0858         calculate D2E/DX2 analytically  !
 ! R2    R(1,3)                  1.0864         calculate D2E/DX2 analytically  !
 ! R3    R(1,10)                 1.3075         calculate D2E/DX2 analytically  !
 ! R4    R(1,11)                 1.4487         calculate D2E/DX2 analytically  !
 ! R5    R(4,5)                  1.0913         calculate D2E/DX2 analytically  !
 ! R6    R(4,6)                  1.088          calculate D2E/DX2 analytically  !
 ! R7    R(4,7)                  1.0897         calculate D2E/DX2 analytically  !
 ! R8    R(4,8)                  1.4166         calculate D2E/DX2 analytically  !
 ! R9    R(8,9)                  1.3657         calculate D2E/DX2 analytically  !
 ! R10   R(9,10)                 1.2313         calculate D2E/DX2 analytically  !
 ! R11   R(11,12)                1.3389         calculate D2E/DX2 analytically  !
 ! R12   R(11,13)                1.0842         calculate D2E/DX2 analytically  !
 ! R13   R(12,14)                1.0837         calculate D2E/DX2 analytically  !
 ! R14   R(12,15)                1.0807         calculate D2E/DX2 analytically  !
 ! A1    A(2,1,3)              113.688          calculate D2E/DX2 analytically  !
 ! A2    A(2,1,10)              99.9447         calculate D2E/DX2 analytically  !
 ! A3    A(2,1,11)             116.5028         calculate D2E/DX2 analytically  !
 ! A4    A(3,1,10)             104.5501         calculate D2E/DX2 analytically  !
 ! A5    A(3,1,11)             115.9001         calculate D2E/DX2 analytically  !
 ! A6    A(10,1,11)            103.3384         calculate D2E/DX2 analytically  !
 ! A7    A(5,4,6)              110.0502         calculate D2E/DX2 analytically  !
 ! A8    A(5,4,7)              110.0334         calculate D2E/DX2 analytically  !
 ! A9    A(5,4,8)              110.0768         calculate D2E/DX2 analytically  !
 ! A10   A(6,4,7)              110.6596         calculate D2E/DX2 analytically  !
 ! A11   A(6,4,8)              105.876          calculate D2E/DX2 analytically  !
 ! A12   A(7,4,8)              110.0708         calculate D2E/DX2 analytically  !
 ! A13   A(4,8,9)              108.4501         calculate D2E/DX2 analytically  !
 ! A14   A(8,9,10)             102.9957         calculate D2E/DX2 analytically  !
 ! A15   A(1,11,12)            124.2425         calculate D2E/DX2 analytically  !
 ! A16   A(1,11,13)            116.9365         calculate D2E/DX2 analytically  !
 ! A17   A(12,11,13)           118.7648         calculate D2E/DX2 analytically  !
 ! A18   A(11,12,14)           121.0621         calculate D2E/DX2 analytically  !
 ! A19   A(11,12,15)           121.6038         calculate D2E/DX2 analytically  !
 ! A20   A(14,12,15)           117.329          calculate D2E/DX2 analytically  !
 ! A21   L(1,10,9,5,-1)        175.8131         calculate D2E/DX2 analytically  !
 ! A22   L(1,10,9,5,-2)        171.6939         calculate D2E/DX2 analytically  !
 ! D1    D(2,1,9,8)           -135.2908         calculate D2E/DX2 analytically  !
 ! D2    D(3,1,9,8)            105.0686         calculate D2E/DX2 analytically  !
 ! D3    D(11,1,9,8)           -15.5349         calculate D2E/DX2 analytically  !
 ! D4    D(2,1,11,12)         -150.291          calculate D2E/DX2 analytically  !
 ! D5    D(2,1,11,13)           32.4754         calculate D2E/DX2 analytically  !
 ! D6    D(3,1,11,12)          -12.4582         calculate D2E/DX2 analytically  !
 ! D7    D(3,1,11,13)          170.3082         calculate D2E/DX2 analytically  !
 ! D8    D(10,1,11,12)         101.2544         calculate D2E/DX2 analytically  !
 ! D9    D(10,1,11,13)         -75.9792         calculate D2E/DX2 analytically  !
 ! D10   D(5,4,8,9)             61.4222         calculate D2E/DX2 analytically  !
 ! D11   D(6,4,8,9)           -179.667          calculate D2E/DX2 analytically  !
 ! D12   D(7,4,8,9)            -60.0344         calculate D2E/DX2 analytically  !
 ! D13   D(4,8,9,10)           -90.9844         calculate D2E/DX2 analytically  !
 ! D14   D(1,11,12,14)           2.6612         calculate D2E/DX2 analytically  !
 ! D15   D(1,11,12,15)        -178.1818         calculate D2E/DX2 analytically  !
 ! D16   D(13,11,12,14)        179.8477         calculate D2E/DX2 analytically  !
 ! D17   D(13,11,12,15)         -0.9953         calculate D2E/DX2 analytically  !
 --------------------------------------------------------------------------------
 Trust Radius=3.00D-01 FncErr=1.00D-07 GrdErr=1.00D-07 EigMax=2.50D+02 EigMin=1.00D-04
 Number of steps in this run=    100 maximum allowed number of steps=    100.
 Search for a saddle point of order  1.
 GradGradGradGradGradGradGradGradGradGradGradGradGradGradGradGradGradGrad

                          Input orientation:                          
 ---------------------------------------------------------------------
 Center     Atomic      Atomic             Coordinates (Angstroms)
 Number     Number       Type             X           Y           Z
 ---------------------------------------------------------------------
      1          6           0       -1.205406   -1.165462   -0.432481
      2          1           0       -1.495574   -2.158778   -0.103779
      3          1           0       -1.318987   -1.008944   -1.501577
      4          6           0        1.670970    1.033103   -0.391651
      5          1           0        0.876783    1.051311   -1.139947
      6          1           0        1.734137    1.997093    0.108764
      7          1           0        2.621117    0.781002   -0.861794
      8          8           0        1.364090    0.090539    0.620319
      9          8           0        1.279428   -1.146342    0.047605
     10          1           0        0.086901   -1.234463   -0.246067
     11          6           0       -1.606830   -0.061126    0.414918
     12          6           0       -1.865129    1.174890   -0.030232
     13          1           0       -1.654929   -0.252374    1.481036
     14          1           0       -1.825320    1.408005   -1.087775
     15          1           0       -2.133902    1.975150    0.644438
 ---------------------------------------------------------------------
                    Distance matrix (angstroms):
                    1          2          3          4          5
     1  C    0.000000
     2  H    1.085780   0.000000
     3  H    1.086446   1.818554   0.000000
     4  C    3.620621   4.505327   3.787048   0.000000
     5  H    3.122515   4.123881   3.032628   1.091335   0.000000
     6  H    4.351507   5.267587   4.577229   1.087971   1.785732
     7  H    4.314546   5.115079   4.374660   1.089664   1.786935
     8  O    3.047661   3.709639   3.593078   1.416575   2.063756
     9  O    2.530859   2.957800   3.028300   2.257483   2.530233
    10  H    1.307505   1.838160   1.898337   2.769896   2.578313
    11  C    1.448718   2.163693   2.157352   3.548502   3.134239
    12  C    2.464607   3.354895   2.689286   3.557348   2.960544
    13  H    2.167337   2.484232   3.095357   4.027532   3.870234
    14  H    2.726983   3.714690   2.503847   3.584576   2.726043
    15  H    3.447507   4.249312   3.764875   4.054378   3.619632
                    6          7          8          9         10
     6  H    0.000000
     7  H    1.790976   0.000000
     8  O    2.008375   2.062405   0.000000
     9  O    3.176741   2.518291   1.365666   0.000000
    10  H    3.644482   3.295978   2.034076   1.231312   0.000000
    11  C    3.935995   4.496077   2.981871   3.105334   2.163873
    12  C    3.694598   4.579634   3.467981   3.909273   3.108374
    13  H    4.292901   4.984104   3.157990   3.385905   2.642225
    14  H    3.801114   4.496110   3.850408   4.177707   3.368635
    15  H    3.905016   5.128833   3.973448   4.663769   4.003321
                   11         12         13         14         15
    11  C    0.000000
    12  C    1.338885   0.000000
    13  H    1.084203   2.089306   0.000000
    14  H    2.112858   1.083663   3.063443   0.000000
    15  H    2.115870   1.080664   2.427174   1.848631   0.000000
 Stoichiometry    C4H9O2(2)
 Framework group  C1[X(C4H9O2)]
 Deg. of freedom    39
 Full point group                 C1      NOp   1
 Largest Abelian subgroup         C1      NOp   1
 Largest concise Abelian subgroup C1      NOp   1
                         Standard orientation:                         
 ---------------------------------------------------------------------
 Center     Atomic      Atomic             Coordinates (Angstroms)
 Number     Number       Type             X           Y           Z
 ---------------------------------------------------------------------
      1          6           0        1.205406   -1.165462    0.432481
      2          1           0        1.495574   -2.158778    0.103779
      3          1           0        1.318987   -1.008944    1.501577
      4          6           0       -1.670970    1.033103    0.391651
      5          1           0       -0.876783    1.051311    1.139947
      6          1           0       -1.734137    1.997093   -0.108764
      7          1           0       -2.621117    0.781002    0.861794
      8          8           0       -1.364090    0.090539   -0.620319
      9          8           0       -1.279428   -1.146342   -0.047605
     10          1           0       -0.086901   -1.234463    0.246067
     11          6           0        1.606830   -0.061126   -0.414918
     12          6           0        1.865129    1.174890    0.030232
     13          1           0        1.654929   -0.252374   -1.481036
     14          1           0        1.825320    1.408005    1.087775
     15          1           0        2.133902    1.975150   -0.644438
 ---------------------------------------------------------------------
 Rotational constants (GHZ):           4.7630655           2.2398865           1.7379136
 Standard basis: CC-pVTZ (5D, 7F)
 There are   345 symmetry adapted cartesian basis functions of A   symmetry.
 There are   306 symmetry adapted basis functions of A   symmetry.
   306 basis functions,   465 primitive gaussians,   345 cartesian basis functions
    25 alpha electrons       24 beta electrons
       nuclear repulsion energy       242.8016886380 Hartrees.
 NAtoms=   15 NActive=   15 NUniq=   15 SFac= 1.00D+00 NAtFMM=   60 NAOKFM=F Big=F
 Integral buffers will be    131072 words long.
 Raffenetti 2 integral format.
 Two-electron integral symmetry is turned on.
 Nuclear repulsion after empirical dispersion term =      242.7939211993 Hartrees.
 One-electron integrals computed using PRISM.
 NBasis=   306 RedAO= T EigKep=  4.02D-04  NBF=   306
 NBsUse=   306 1.00D-06 EigRej= -1.00D+00 NBFU=   306
 ExpMin= 1.03D-01 ExpMax= 1.53D+04 ExpMxC= 5.22D+02 IAcc=3 IRadAn=         5 AccDes= 0.00D+00
 Harris functional with IExCor=  419 and IRadAn=       5 diagonalized for initial guess.
 HarFok:  IExCor=  419 AccDes= 0.00D+00 IRadAn=         5 IDoV= 1 UseB2=F ITyADJ=14
 ICtDFT=  3500011 ScaDFX=  1.000000  1.000000  1.000000  1.000000
 FoFCou: FMM=F IPFlag=           0 FMFlag=      100000 FMFlg1=           0
         NFxFlg=           0 DoJE=T BraDBF=F KetDBF=T FulRan=T
         wScrn=  0.000000 ICntrl=       500 IOpCl=  0 I1Cent=   200000004 NGrid=           0
         NMat0=    1 NMatS0=      1 NMatT0=    0 NMatD0=    1 NMtDS0=    0 NMtDT0=    0
 Petite list used in FoFCou.
 Initial guess <Sx>= 0.0000 <Sy>= 0.0000 <Sz>= 0.5000 <S**2>= 0.7500 S= 0.5000
 Requested convergence on RMS density matrix=1.00D-08 within 128 cycles.
 Requested convergence on MAX density matrix=1.00D-06.
 Requested convergence on             energy=1.00D-06.
 No special actions if energy rises.
 Integral accuracy reduced to 1.0D-05 until final iterations.
 Initial convergence to 1.0D-05 achieved.  Increase integral accuracy.
 SCF Done:  E(UB2PLYPD3) =  -307.579929212     A.U. after   21 cycles
            NFock= 21  Conv=0.91D-08     -V/T= 2.0041
 <Sx>= 0.0000 <Sy>= 0.0000 <Sz>= 0.5000 <S**2>= 0.8129 S= 0.5310
 <L.S>=  0.00000000000    
 Annihilation of the first spin contaminant:
 S**2 before annihilation     0.8129,   after     0.7518
 DoSCS=T DFT=T ScalE2(SS,OS)=  0.270000  0.270000
 ExpMin= 1.03D-01 ExpMax= 1.53D+04 ExpMxC= 5.22D+02 IAcc=3 IRadAn=         5 AccDes= 0.00D+00
 HarFok:  IExCor=  205 AccDes= 0.00D+00 IRadAn=         5 IDoV=-2 UseB2=F ITyADJ=14
 ICtDFT= 12500011 ScaDFX=  1.000000  1.000000  1.000000  1.000000
 Range of M.O.s used for correlation:     7   306
 NBasis=   306 NAE=    25 NBE=    24 NFC=     6 NFV=     0
 NROrb=    300 NOA=    19 NOB=    18 NVA=   281 NVB=   282

 **** Warning!!: The largest alpha MO coefficient is  0.12055052D+02


 **** Warning!!: The largest beta MO coefficient is  0.12053475D+02

 DoSCS=T DFT=T ScalE2(SS,OS)=  0.270000  0.270000
 Disk-based method using ON**2 memory for 19 occupieds at a time.
 Permanent disk used for amplitudes=    70282596 words.
 Estimated scratch disk usage=  1393568908 words.
 Actual    scratch disk usage=  1347510924 words.
 JobTyp=2 Pass  1:  I=   7 to  25 NPSUse= 40 ParTrn=T ParDer=T DoDerP=T.
 (rs|ai) integrals will be sorted in core.
 Actual    scratch disk usage=  1347510924 words.
 JobTyp=3 Pass  1:  I=   7 to  24 NPSUse= 40 ParTrn=T ParDer=T DoDerP=T.
 (rs|ai) integrals will be sorted in core.
 Spin components of T(2) and E(2):
     alpha-alpha T2 =       0.6462237170D-01 E2=     -0.4688273575D-01
     alpha-beta  T2 =       0.3976955317D+00 E2=     -0.2899962824D+00
     beta-beta   T2 =       0.7373337376D-01 E2=     -0.4664368591D-01
 (S**2,0)=  0.81295D+00           (S**2,1)=  0.75617D+00
 Scaling Projection term by:   0.270000
 E(PUHF)=      -0.30759005640D+03        E(PMP2)=      -0.30796497376D+03
 E2(B2PLYPD3) =    -0.3835227040D+00 E(B2PLYPD3) =    -0.30796345191563D+03
 G2DrvN: will do    16 centers at a time, making    1 passes.
 Calling FoFCou, ICntrl=  3107 FMM=F I1Cent=   0 AccDes= 0.00D+00.
 End of G2Drv F.D. properties file   721 does not exist.
 End of G2Drv F.D. properties file   722 does not exist.
 End of G2Drv F.D. properties file   788 does not exist.
          IDoAtm=111111111111111
          Differentiating once with respect to electric field.
                with respect to dipole field.
          Differentiating once with respect to nuclear coordinates.
 Keep R1 and R2 ints in memory in canonical form, NReq=2252448294.
          There are    48 degrees of freedom in the 1st order CPHF.  IDoFFX=6 NUNeed=    48.
     45 vectors produced by pass  0 Test12= 2.87D-14 2.08D-09 XBig12= 9.64D+01 7.19D+00.
 AX will form    45 AO Fock derivatives at one time.
     45 vectors produced by pass  1 Test12= 2.87D-14 2.08D-09 XBig12= 1.03D+01 5.13D-01.
     45 vectors produced by pass  2 Test12= 2.87D-14 2.08D-09 XBig12= 8.77D-01 2.25D-01.
     45 vectors produced by pass  3 Test12= 2.87D-14 2.08D-09 XBig12= 1.35D-02 1.41D-02.
     45 vectors produced by pass  4 Test12= 2.87D-14 2.08D-09 XBig12= 1.54D-04 1.35D-03.
     45 vectors produced by pass  5 Test12= 2.87D-14 2.08D-09 XBig12= 1.81D-06 1.47D-04.
     45 vectors produced by pass  6 Test12= 2.87D-14 2.08D-09 XBig12= 1.54D-08 1.58D-05.
     19 vectors produced by pass  7 Test12= 2.87D-14 2.08D-09 XBig12= 9.77D-11 8.98D-07.
      3 vectors produced by pass  8 Test12= 2.87D-14 2.08D-09 XBig12= 6.16D-13 7.98D-08.
      2 vectors produced by pass  9 Test12= 2.87D-14 2.08D-09 XBig12= 5.64D-15 8.44D-09.
 InvSVY:  IOpt=1 It=  1 EMax= 5.33D-15
 Solved reduced A of dimension   339 with    48 vectors.
 End of Minotr F.D. properties file   721 does not exist.
 End of Minotr F.D. properties file   722 does not exist.
 End of Minotr F.D. properties file   788 does not exist.
 MDV= 10737418240.
 DoSCS=T DFT=T ScalE2(SS,OS)=  0.270000  0.270000
 Form MO integral derivatives with frozen-active canonical formalism.
 Discarding MO integrals.
 Reordered first order wavefunction length =    283226920
 In DefCFB: NBatch=  1 ICI= 25 ICA=282 LFMax= 71
            Large arrays: LIAPS=  5824508040 LIARS=  1191802500 words.
 In DefCFB: NBatch=  1 ICI= 25 ICA=282 LFMax= 71
            Large arrays: LIAPS=  5824508040 LIARS=  1191802500 words.
 Semi-Direct transformation.
 ModeAB=           4 MOrb=            25 LenV=   10734604189
 LASXX=    339668775 LTotXX=   339668775 LenRXX=   684905625
 LTotAB=   345236850 MaxLAS=   439591950 LenRXY=           0
 NonZer=  1024574400 LenScr=  1542889472 LnRSAI=   439591950
 LnScr1=   661974016 LExtra=           0 Total=   3329361063
 MaxDsk=          -1 SrtSym=           T ITran=            4
 JobTyp=1 Pass  1:  I=   1 to  25.
 (rs|ai) integrals will be sorted in core.
 ModeAB=           4 MOrb=            24 LenV=   10734604189
 LASXX=    326802342 LTotXX=   326802342 LenRXX=   606843570
 LTotAB=   280041228 MaxLAS=   422008272 LenRXY=           0
 NonZer=   933645912 LenScr=  1405961216 LnRSAI=   422008272
 LnScr1=   635495424 LExtra=           0 Total=   3070308482
 MaxDsk=          -1 SrtSym=           T ITran=            4
 JobTyp=2 Pass  1:  I=   1 to  24.
 (rs|ai) integrals will be sorted in core.
 SymMOI:  orbitals are not symmetric.
 DoSCS=T DFT=T ScalE2(SS,OS)=  0.270000  0.270000
 Spin components of T(2) and E(2):
     alpha-alpha T2 =       0.6462237170D-01 E2=     -0.4688273575D-01
     alpha-beta  T2 =       0.3976955317D+00 E2=     -0.2899962824D+00
     beta-beta   T2 =       0.7373337376D-01 E2=     -0.4664368591D-01
 E2(B2PLYPD3) =    -0.3835227040D+00 E(B2PLYPD3) =    -0.30796345191563D+03
 (S**2,0)=  0.81295D+00           (S**2,1)=  0.75617D+00
 Scaling Projection term by:   0.270000
 E(PUHF)=      -0.30759005640D+03        E(PMP2)=      -0.30796497376D+03
          IDoAtm=111111111111111
          Differentiating once with respect to electric field.
                with respect to dipole field.
          Differentiating once with respect to nuclear coordinates.
 Keep R1 and R2 ints in memory in canonical form, NReq=2252584249.
          There are     1 degrees of freedom in the 1st order CPHF.  IDoFFX=0 NUNeed=     1.
 LinEq1:  Iter=  0 NonCon=     1 RMS=1.06D-03 Max=6.39D-02 NDo=     1
 AX will form     1 AO Fock derivatives at one time.
 LinEq1:  Iter=  1 NonCon=     1 RMS=3.82D-04 Max=1.45D-02 NDo=     1
 LinEq1:  Iter=  2 NonCon=     1 RMS=2.54D-04 Max=9.41D-03 NDo=     1
 LinEq1:  Iter=  3 NonCon=     1 RMS=1.32D-04 Max=4.81D-03 NDo=     1
 LinEq1:  Iter=  4 NonCon=     1 RMS=8.74D-05 Max=3.87D-03 NDo=     1
 LinEq1:  Iter=  5 NonCon=     1 RMS=5.73D-05 Max=2.70D-03 NDo=     1
 LinEq1:  Iter=  6 NonCon=     1 RMS=3.09D-05 Max=9.20D-04 NDo=     1
 LinEq1:  Iter=  7 NonCon=     1 RMS=8.85D-06 Max=2.45D-04 NDo=     1
 LinEq1:  Iter=  8 NonCon=     1 RMS=4.01D-06 Max=1.68D-04 NDo=     1
 LinEq1:  Iter=  9 NonCon=     1 RMS=1.98D-06 Max=4.40D-05 NDo=     1
 LinEq1:  Iter= 10 NonCon=     1 RMS=9.04D-07 Max=1.79D-05 NDo=     1
 LinEq1:  Iter= 11 NonCon=     1 RMS=4.75D-07 Max=1.41D-05 NDo=     1
 LinEq1:  Iter= 12 NonCon=     1 RMS=2.32D-07 Max=5.80D-06 NDo=     1
 LinEq1:  Iter= 13 NonCon=     1 RMS=8.49D-08 Max=1.91D-06 NDo=     1
 LinEq1:  Iter= 14 NonCon=     1 RMS=2.62D-08 Max=5.82D-07 NDo=     1
 LinEq1:  Iter= 15 NonCon=     1 RMS=1.18D-08 Max=3.40D-07 NDo=     1
 LinEq1:  Iter= 16 NonCon=     1 RMS=4.67D-09 Max=1.62D-07 NDo=     1
 LinEq1:  Iter= 17 NonCon=     1 RMS=2.09D-09 Max=9.39D-08 NDo=     1
 LinEq1:  Iter= 18 NonCon=     1 RMS=8.00D-10 Max=4.59D-08 NDo=     1
 LinEq1:  Iter= 19 NonCon=     1 RMS=2.70D-10 Max=1.29D-08 NDo=     1
 LinEq1:  Iter= 20 NonCon=     1 RMS=9.79D-11 Max=3.60D-09 NDo=     1
 LinEq1:  Iter= 21 NonCon=     0 RMS=2.99D-11 Max=5.86D-10 NDo=     1
 Linear equations converged to 1.000D-10 1.000D-09 after    21 iterations.
 End of Minotr F.D. properties file   721 does not exist.
 End of Minotr F.D. properties file   722 does not exist.
 End of Minotr F.D. properties file   788 does not exist.
 Symmetrizing basis deriv contribution to polar:
 IMax=3 JMax=2 DiffMx= 0.00D+00
 G2DrvN: will do    16 centers at a time, making    1 passes.
 Calling FoFCou, ICntrl=  3107 FMM=F I1Cent=   0 AccDes= 0.00D+00.
 End of G2Drv F.D. properties file   721 does not exist.
 End of G2Drv F.D. properties file   722 does not exist.
 End of G2Drv F.D. properties file   788 does not exist.
 DoSCS=T DFT=T ScalE2(SS,OS)=  0.270000  0.270000
 R2 and R3 integrals will be kept in memory, NReq=  3583069605.
 DD1Dir will call FoFMem   1 times, MxPair=      1776
 NAB=   600 NAA=   300 NBB=   276.
 Discarding MO integrals.

 **********************************************************************

            Population analysis using the SCF Density.

 **********************************************************************

 Orbital symmetries:
 Alpha Orbitals:
       Occupied  (A) (A) (A) (A) (A) (A) (A) (A) (A) (A) (A) (A)
                 (A) (A) (A) (A) (A) (A) (A) (A) (A) (A) (A) (A)
                 (A)
       Virtual   (A) (A) (A) (A) (A) (A) (A) (A) (A) (A) (A) (A)
                 (A) (A) (A) (A) (A) (A) (A) (A) (A) (A) (A) (A)
                 (A) (A) (A) (A) (A) (A) (A) (A) (A) (A) (A) (A)
                 (A) (A) (A) (A) (A) (A) (A) (A) (A) (A) (A) (A)
                 (A) (A) (A) (A) (A) (A) (A) (A) (A) (A) (A) (A)
                 (A) (A) (A) (A) (A) (A) (A) (A) (A) (A) (A) (A)
                 (A) (A) (A) (A) (A) (A) (A) (A) (A) (A) (A) (A)
                 (A) (A) (A) (A) (A) (A) (A) (A) (A) (A) (A) (A)
                 (A) (A) (A) (A) (A) (A) (A) (A) (A) (A) (A) (A)
                 (A) (A) (A) (A) (A) (A) (A) (A) (A) (A) (A) (A)
                 (A) (A) (A) (A) (A) (A) (A) (A) (A) (A) (A) (A)
                 (A) (A) (A) (A) (A) (A) (A) (A) (A) (A) (A) (A)
                 (A) (A) (A) (A) (A) (A) (A) (A) (A) (A) (A) (A)
                 (A) (A) (A) (A) (A) (A) (A) (A) (A) (A) (A) (A)
                 (A) (A) (A) (A) (A) (A) (A) (A) (A) (A) (A) (A)
                 (A) (A) (A) (A) (A) (A) (A) (A) (A) (A) (A) (A)
                 (A) (A) (A) (A) (A) (A) (A) (A) (A) (A) (A) (A)
                 (A) (A) (A) (A) (A) (A) (A) (A) (A) (A) (A) (A)
                 (A) (A) (A) (A) (A) (A) (A) (A) (A) (A) (A) (A)
                 (A) (A) (A) (A) (A) (A) (A) (A) (A) (A) (A) (A)
                 (A) (A) (A) (A) (A) (A) (A) (A) (A) (A) (A) (A)
                 (A) (A) (A) (A) (A) (A) (A) (A) (A) (A) (A) (A)
                 (A) (A) (A) (A) (A) (A) (A) (A) (A) (A) (A) (A)
                 (A) (A) (A) (A) (A)
 Beta  Orbitals:
       Occupied  (A) (A) (A) (A) (A) (A) (A) (A) (A) (A) (A) (A)
                 (A) (A) (A) (A) (A) (A) (A) (A) (A) (A) (A) (A)
       Virtual   (A) (A) (A) (A) (A) (A) (A) (A) (A) (A) (A) (A)
                 (A) (A) (A) (A) (A) (A) (A) (A) (A) (A) (A) (A)
                 (A) (A) (A) (A) (A) (A) (A) (A) (A) (A) (A) (A)
                 (A) (A) (A) (A) (A) (A) (A) (A) (A) (A) (A) (A)
                 (A) (A) (A) (A) (A) (A) (A) (A) (A) (A) (A) (A)
                 (A) (A) (A) (A) (A) (A) (A) (A) (A) (A) (A) (A)
                 (A) (A) (A) (A) (A) (A) (A) (A) (A) (A) (A) (A)
                 (A) (A) (A) (A) (A) (A) (A) (A) (A) (A) (A) (A)
                 (A) (A) (A) (A) (A) (A) (A) (A) (A) (A) (A) (A)
                 (A) (A) (A) (A) (A) (A) (A) (A) (A) (A) (A) (A)
                 (A) (A) (A) (A) (A) (A) (A) (A) (A) (A) (A) (A)
                 (A) (A) (A) (A) (A) (A) (A) (A) (A) (A) (A) (A)
                 (A) (A) (A) (A) (A) (A) (A) (A) (A) (A) (A) (A)
                 (A) (A) (A) (A) (A) (A) (A) (A) (A) (A) (A) (A)
                 (A) (A) (A) (A) (A) (A) (A) (A) (A) (A) (A) (A)
                 (A) (A) (A) (A) (A) (A) (A) (A) (A) (A) (A) (A)
                 (A) (A) (A) (A) (A) (A) (A) (A) (A) (A) (A) (A)
                 (A) (A) (A) (A) (A) (A) (A) (A) (A) (A) (A) (A)
                 (A) (A) (A) (A) (A) (A) (A) (A) (A) (A) (A) (A)
                 (A) (A) (A) (A) (A) (A) (A) (A) (A) (A) (A) (A)
                 (A) (A) (A) (A) (A) (A) (A) (A) (A) (A) (A) (A)
                 (A) (A) (A) (A) (A) (A) (A) (A) (A) (A) (A) (A)
                 (A) (A) (A) (A) (A) (A) (A) (A) (A) (A) (A) (A)
                 (A) (A) (A) (A) (A) (A)
 The electronic state is 2-A.
 Alpha  occ. eigenvalues --  -19.79421 -19.78718 -10.66016 -10.63032 -10.62904
 Alpha  occ. eigenvalues --  -10.62316  -1.29948  -1.01437  -0.92445  -0.80928
 Alpha  occ. eigenvalues --   -0.77561  -0.65461  -0.61416  -0.56892  -0.55893
 Alpha  occ. eigenvalues --   -0.55371  -0.51188  -0.49971  -0.46072  -0.44718
 Alpha  occ. eigenvalues --   -0.42848  -0.40175  -0.36291  -0.34936  -0.28133
 Alpha virt. eigenvalues --    0.06628   0.07998   0.10270   0.11367   0.12262
 Alpha virt. eigenvalues --    0.14198   0.15496   0.16144   0.16692   0.18707
 Alpha virt. eigenvalues --    0.21325   0.23770   0.27580   0.29209   0.30290
 Alpha virt. eigenvalues --    0.31257   0.32195   0.35507   0.36825   0.37422
 Alpha virt. eigenvalues --    0.42193   0.44631   0.46288   0.46470   0.48338
 Alpha virt. eigenvalues --    0.49608   0.51411   0.51697   0.52200   0.53155
 Alpha virt. eigenvalues --    0.53376   0.54409   0.56129   0.57374   0.57875
 Alpha virt. eigenvalues --    0.59349   0.62630   0.63560   0.66642   0.68875
 Alpha virt. eigenvalues --    0.69453   0.71321   0.72993   0.76078   0.77527
 Alpha virt. eigenvalues --    0.80082   0.81451   0.88226   0.89904   0.92740
 Alpha virt. eigenvalues --    0.94239   0.95198   0.95623   0.97524   0.98756
 Alpha virt. eigenvalues --    1.01156   1.04666   1.05443   1.05732   1.07844
 Alpha virt. eigenvalues --    1.10532   1.11660   1.12949   1.14155   1.15868
 Alpha virt. eigenvalues --    1.17645   1.18927   1.21070   1.21995   1.24103
 Alpha virt. eigenvalues --    1.26567   1.27625   1.29597   1.34843   1.35264
 Alpha virt. eigenvalues --    1.36625   1.37818   1.39002   1.41283   1.42774
 Alpha virt. eigenvalues --    1.44165   1.47984   1.49251   1.50297   1.52633
 Alpha virt. eigenvalues --    1.55078   1.56343   1.58665   1.61424   1.62742
 Alpha virt. eigenvalues --    1.71257   1.73094   1.77879   1.81332   1.83198
 Alpha virt. eigenvalues --    1.88972   1.98321   2.04867   2.05044   2.14011
 Alpha virt. eigenvalues --    2.16140   2.21368   2.22810   2.29340   2.31660
 Alpha virt. eigenvalues --    2.34311   2.37184   2.41267   2.42762   2.46454
 Alpha virt. eigenvalues --    2.49570   2.49728   2.52380   2.54066   2.57619
 Alpha virt. eigenvalues --    2.58625   2.65194   2.67964   2.71182   2.72151
 Alpha virt. eigenvalues --    2.78818   2.81309   2.83635   2.85166   2.89266
 Alpha virt. eigenvalues --    2.90214   2.91583   2.91798   2.93672   2.94288
 Alpha virt. eigenvalues --    2.97084   2.99571   3.00567   3.02336   3.04187
 Alpha virt. eigenvalues --    3.04604   3.07333   3.07906   3.10171   3.12838
 Alpha virt. eigenvalues --    3.13871   3.14610   3.16317   3.16518   3.17600
 Alpha virt. eigenvalues --    3.18826   3.22412   3.22751   3.24825   3.27541
 Alpha virt. eigenvalues --    3.28850   3.32246   3.36459   3.37130   3.40233
 Alpha virt. eigenvalues --    3.42440   3.44063   3.46322   3.46927   3.49728
 Alpha virt. eigenvalues --    3.51122   3.52186   3.53647   3.55459   3.56141
 Alpha virt. eigenvalues --    3.56955   3.60296   3.62816   3.65008   3.66509
 Alpha virt. eigenvalues --    3.70870   3.73833   3.78385   3.81000   3.81646
 Alpha virt. eigenvalues --    3.84242   3.84685   3.85821   3.89138   3.89720
 Alpha virt. eigenvalues --    3.94249   3.95216   3.96345   3.97628   3.98579
 Alpha virt. eigenvalues --    4.00916   4.05496   4.05844   4.07052   4.09381
 Alpha virt. eigenvalues --    4.12022   4.12421   4.13340   4.13995   4.17931
 Alpha virt. eigenvalues --    4.19127   4.20779   4.21449   4.23239   4.26737
 Alpha virt. eigenvalues --    4.28826   4.30606   4.35646   4.36753   4.38448
 Alpha virt. eigenvalues --    4.42128   4.43418   4.46962   4.47884   4.53299
 Alpha virt. eigenvalues --    4.55530   4.58420   4.61199   4.66245   4.72179
 Alpha virt. eigenvalues --    4.73972   4.77234   4.80311   4.81993   4.84508
 Alpha virt. eigenvalues --    4.87238   4.90231   4.94352   4.99169   5.00218
 Alpha virt. eigenvalues --    5.03633   5.04610   5.06414   5.10824   5.11970
 Alpha virt. eigenvalues --    5.12132   5.14005   5.21864   5.25807   5.27738
 Alpha virt. eigenvalues --    5.29708   5.32056   5.34083   5.35573   5.38247
 Alpha virt. eigenvalues --    5.39556   5.40986   5.43333   5.48465   5.52018
 Alpha virt. eigenvalues --    5.56846   5.62500   5.70178   5.75250   5.85029
 Alpha virt. eigenvalues --    5.90484   5.94989   5.98171   6.00038   6.02977
 Alpha virt. eigenvalues --    6.08470   6.11049   6.12824   6.22117   6.30636
 Alpha virt. eigenvalues --    6.40265   6.44727   6.47070   6.69070   6.73055
 Alpha virt. eigenvalues --    6.75690   6.81263   6.97327   7.04942   7.08505
 Alpha virt. eigenvalues --    7.12946   7.44771   7.46466   7.63114   7.68377
 Alpha virt. eigenvalues --    9.86297  10.86664  11.37022  13.22678  13.52737
 Alpha virt. eigenvalues --   14.44831
  Beta  occ. eigenvalues --  -19.79077 -19.76934 -10.66033 -10.63346 -10.62105
  Beta  occ. eigenvalues --  -10.61669  -1.27707  -0.98206  -0.91667  -0.78621
  Beta  occ. eigenvalues --   -0.76701  -0.64976  -0.58024  -0.55711  -0.55121
  Beta  occ. eigenvalues --   -0.54821  -0.50773  -0.47006  -0.45514  -0.43817
  Beta  occ. eigenvalues --   -0.42478  -0.36135  -0.34902  -0.30268
  Beta virt. eigenvalues --   -0.05582   0.07510   0.08316   0.10313   0.11751
  Beta virt. eigenvalues --    0.12619   0.14614   0.15607   0.16238   0.16966
  Beta virt. eigenvalues --    0.18916   0.22180   0.23939   0.28357   0.29817
  Beta virt. eigenvalues --    0.30521   0.31527   0.32870   0.35743   0.37250
  Beta virt. eigenvalues --    0.38038   0.42969   0.44622   0.46154   0.46885
  Beta virt. eigenvalues --    0.48725   0.50608   0.51716   0.52463   0.52713
  Beta virt. eigenvalues --    0.53686   0.53888   0.54896   0.57151   0.57791
  Beta virt. eigenvalues --    0.58255   0.59825   0.62893   0.63904   0.66949
  Beta virt. eigenvalues --    0.69254   0.69744   0.71787   0.74126   0.76314
  Beta virt. eigenvalues --    0.77781   0.80544   0.82269   0.88512   0.90034
  Beta virt. eigenvalues --    0.93042   0.94451   0.95465   0.95738   0.97863
  Beta virt. eigenvalues --    0.99127   1.01388   1.04815   1.05702   1.05905
  Beta virt. eigenvalues --    1.08213   1.10754   1.12236   1.13454   1.14570
  Beta virt. eigenvalues --    1.16187   1.17789   1.19053   1.21471   1.22374
  Beta virt. eigenvalues --    1.24456   1.26831   1.28159   1.30084   1.34958
  Beta virt. eigenvalues --    1.35477   1.36794   1.38028   1.39128   1.41374
  Beta virt. eigenvalues --    1.43082   1.44580   1.48309   1.49566   1.50773
  Beta virt. eigenvalues --    1.53181   1.55307   1.56796   1.59149   1.61627
  Beta virt. eigenvalues --    1.63261   1.71882   1.73515   1.78693   1.81756
  Beta virt. eigenvalues --    1.84774   1.89853   1.98758   2.05563   2.05886
  Beta virt. eigenvalues --    2.14498   2.16838   2.22896   2.23917   2.29814
  Beta virt. eigenvalues --    2.32479   2.35050   2.37627   2.42021   2.43341
  Beta virt. eigenvalues --    2.46909   2.49825   2.50175   2.52504   2.54233
  Beta virt. eigenvalues --    2.58108   2.59375   2.65961   2.69092   2.71355
  Beta virt. eigenvalues --    2.72304   2.79431   2.81343   2.84106   2.85670
  Beta virt. eigenvalues --    2.89616   2.90654   2.91949   2.92394   2.94033
  Beta virt. eigenvalues --    2.94583   2.97392   2.99880   3.01214   3.02519
  Beta virt. eigenvalues --    3.04543   3.04976   3.07943   3.08338   3.10900
  Beta virt. eigenvalues --    3.12852   3.14036   3.15018   3.16836   3.17035
  Beta virt. eigenvalues --    3.18026   3.19115   3.22462   3.23438   3.25593
  Beta virt. eigenvalues --    3.28005   3.29413   3.33068   3.36653   3.37387
  Beta virt. eigenvalues --    3.40397   3.42575   3.44116   3.46580   3.47658
  Beta virt. eigenvalues --    3.50153   3.51303   3.52310   3.53754   3.55761
  Beta virt. eigenvalues --    3.56570   3.57234   3.60460   3.62904   3.65406
  Beta virt. eigenvalues --    3.66902   3.71005   3.74083   3.78652   3.81114
  Beta virt. eigenvalues --    3.81879   3.84248   3.84930   3.86031   3.89287
  Beta virt. eigenvalues --    3.89945   3.94276   3.95219   3.96524   3.97464
  Beta virt. eigenvalues --    3.98849   4.01040   4.05401   4.05919   4.07121
  Beta virt. eigenvalues --    4.09605   4.11939   4.12339   4.13504   4.14025
  Beta virt. eigenvalues --    4.18028   4.19109   4.20865   4.21513   4.23406
  Beta virt. eigenvalues --    4.27242   4.28973   4.30695   4.35680   4.36898
  Beta virt. eigenvalues --    4.38702   4.42474   4.43914   4.47190   4.48269
  Beta virt. eigenvalues --    4.53675   4.55924   4.59089   4.61878   4.66862
  Beta virt. eigenvalues --    4.72743   4.74471   4.77938   4.80474   4.82300
  Beta virt. eigenvalues --    4.84724   4.87626   4.90535   4.94520   4.99458
  Beta virt. eigenvalues --    5.00510   5.04076   5.05120   5.06637   5.11029
  Beta virt. eigenvalues --    5.12554   5.12690   5.14415   5.22706   5.26441
  Beta virt. eigenvalues --    5.28511   5.30281   5.32451   5.34382   5.35841
  Beta virt. eigenvalues --    5.38739   5.39825   5.41143   5.43577   5.48843
  Beta virt. eigenvalues --    5.52237   5.57329   5.62686   5.71047   5.75964
  Beta virt. eigenvalues --    5.85977   5.90988   5.95190   5.98573   6.00365
  Beta virt. eigenvalues --    6.04864   6.09281   6.11390   6.13385   6.23641
  Beta virt. eigenvalues --    6.31205   6.41977   6.45193   6.47221   6.70013
  Beta virt. eigenvalues --    6.76877   6.78082   6.82955   6.99411   7.07401
  Beta virt. eigenvalues --    7.09457   7.15143   7.46630   7.46651   7.64870
  Beta virt. eigenvalues --    7.69527   9.87634  10.87545  11.37000  13.23426
  Beta virt. eigenvalues --   13.52737  14.45207
          Condensed to atoms (all electrons):
               1          2          3          4          5          6
     1  C    5.050994   0.409562   0.405316  -0.003283   0.000266   0.000341
     2  H    0.409562   0.540310  -0.027526   0.000076  -0.000157   0.000019
     3  H    0.405316  -0.027526   0.561404   0.000140  -0.000844  -0.000060
     4  C   -0.003283   0.000076   0.000140   4.622490   0.390371   0.396869
     5  H    0.000266  -0.000157  -0.000844   0.390371   0.680362  -0.036473
     6  H    0.000341   0.000019  -0.000060   0.396869  -0.036473   0.588205
     7  H   -0.000972   0.000024   0.000011   0.413365  -0.052641  -0.026553
     8  O   -0.003450   0.000581   0.000356   0.297882  -0.051057  -0.025335
     9  O   -0.068505  -0.000270  -0.000395  -0.048273  -0.001581   0.006798
    10  H    0.247821  -0.011944  -0.008818   0.000859   0.004859  -0.000882
    11  C    0.367722  -0.033857  -0.047712  -0.002334   0.001147   0.000268
    12  C   -0.063115   0.004626  -0.000356  -0.005245  -0.004354   0.001371
    13  H   -0.033509  -0.005160   0.005318  -0.000064   0.000177  -0.000069
    14  H   -0.004828  -0.000026   0.003525  -0.000655   0.000393   0.000044
    15  H    0.005936  -0.000279   0.000023   0.000175   0.000053  -0.000030
               7          8          9         10         11         12
     1  C   -0.000972  -0.003450  -0.068505   0.247821   0.367722  -0.063115
     2  H    0.000024   0.000581  -0.000270  -0.011944  -0.033857   0.004626
     3  H    0.000011   0.000356  -0.000395  -0.008818  -0.047712  -0.000356
     4  C    0.413365   0.297882  -0.048273   0.000859  -0.002334  -0.005245
     5  H   -0.052641  -0.051057  -0.001581   0.004859   0.001147  -0.004354
     6  H   -0.026553  -0.025335   0.006798  -0.000882   0.000268   0.001371
     7  H    0.599492  -0.038557   0.005685   0.000532   0.000886   0.000259
     8  O   -0.038557   7.928425   0.070185  -0.026263   0.007199   0.002684
     9  O    0.005685   0.070185   8.096397   0.163130  -0.013403   0.000733
    10  H    0.000532  -0.026263   0.163130   0.439830  -0.007580  -0.006825
    11  C    0.000886   0.007199  -0.013403  -0.007580   4.892723   0.571848
    12  C    0.000259   0.002684   0.000733  -0.006825   0.571848   5.015343
    13  H   -0.000004   0.000651   0.000690  -0.000705   0.408785  -0.040646
    14  H    0.000032   0.000020  -0.000052   0.000111  -0.050729   0.408541
    15  H   -0.000008  -0.000063   0.000017  -0.000098  -0.044130   0.421030
              13         14         15
     1  C   -0.033509  -0.004828   0.005936
     2  H   -0.005160  -0.000026  -0.000279
     3  H    0.005318   0.003525   0.000023
     4  C   -0.000064  -0.000655   0.000175
     5  H    0.000177   0.000393   0.000053
     6  H   -0.000069   0.000044  -0.000030
     7  H   -0.000004   0.000032  -0.000008
     8  O    0.000651   0.000020  -0.000063
     9  O    0.000690  -0.000052   0.000017
    10  H   -0.000705   0.000111  -0.000098
    11  C    0.408785  -0.050729  -0.044130
    12  C   -0.040646   0.408541   0.421030
    13  H    0.522639   0.006012  -0.006944
    14  H    0.006012   0.544727  -0.033865
    15  H   -0.006944  -0.033865   0.526984
          Atomic-Atomic Spin Densities.
               1          2          3          4          5          6
     1  C    0.486645   0.001020   0.002309   0.002400  -0.006219   0.000036
     2  H    0.001020  -0.022302   0.002242  -0.000093   0.000226  -0.000003
     3  H    0.002309   0.002242  -0.020253  -0.000263   0.000935   0.000002
     4  C    0.002400  -0.000093  -0.000263  -0.009275   0.001230   0.001022
     5  H   -0.006219   0.000226   0.000935   0.001230   0.005553  -0.000396
     6  H    0.000036  -0.000003   0.000002   0.001022  -0.000396  -0.002051
     7  H    0.000999  -0.000030  -0.000082  -0.000211  -0.001529   0.000257
     8  O    0.013971  -0.000495  -0.000552   0.001942  -0.002112   0.000331
     9  O   -0.068175   0.003038   0.002481  -0.003239   0.005077  -0.000203
    10  H    0.048392   0.002845   0.001767   0.002471  -0.004653   0.000130
    11  C   -0.015471   0.001520   0.001534  -0.001473   0.001495  -0.000208
    12  C   -0.017319  -0.000682  -0.000707  -0.003345   0.005374   0.000051
    13  H   -0.001445   0.000167   0.000005  -0.000021   0.000012   0.000008
    14  H    0.000120  -0.000059  -0.000232   0.000060  -0.000256  -0.000003
    15  H   -0.000113   0.000041   0.000031  -0.000068   0.000150   0.000005
               7          8          9         10         11         12
     1  C    0.000999   0.013971  -0.068175   0.048392  -0.015471  -0.017319
     2  H   -0.000030  -0.000495   0.003038   0.002845   0.001520  -0.000682
     3  H   -0.000082  -0.000552   0.002481   0.001767   0.001534  -0.000707
     4  C   -0.000211   0.001942  -0.003239   0.002471  -0.001473  -0.003345
     5  H   -0.001529  -0.002112   0.005077  -0.004653   0.001495   0.005374
     6  H    0.000257   0.000331  -0.000203   0.000130  -0.000208   0.000051
     7  H    0.002814  -0.000879   0.000101   0.001415  -0.000316  -0.000389
     8  O   -0.000879   0.115594  -0.061193   0.011290  -0.003332  -0.004950
     9  O    0.000101  -0.061193   0.627190  -0.048178   0.008376   0.002529
    10  H    0.001415   0.011290  -0.048178  -0.103623   0.007495  -0.000456
    11  C   -0.000316  -0.003332   0.008376   0.007495  -0.254667   0.003954
    12  C   -0.000389  -0.004950   0.002529  -0.000456   0.003954   0.409793
    13  H   -0.000000  -0.000061   0.000030  -0.000250  -0.002373  -0.000961
    14  H    0.000015   0.000093  -0.000079   0.000070   0.000341   0.004257
    15  H   -0.000007  -0.000108   0.000035  -0.000027  -0.000875   0.004057
              13         14         15
     1  C   -0.001445   0.000120  -0.000113
     2  H    0.000167  -0.000059   0.000041
     3  H    0.000005  -0.000232   0.000031
     4  C   -0.000021   0.000060  -0.000068
     5  H    0.000012  -0.000256   0.000150
     6  H    0.000008  -0.000003   0.000005
     7  H   -0.000000   0.000015  -0.000007
     8  O   -0.000061   0.000093  -0.000108
     9  O    0.000030  -0.000079   0.000035
    10  H   -0.000250   0.000070  -0.000027
    11  C   -0.002373   0.000341  -0.000875
    12  C   -0.000961   0.004257   0.004057
    13  H    0.013335  -0.000059   0.000283
    14  H   -0.000059  -0.022181   0.002511
    15  H    0.000283   0.002511  -0.023370
 Mulliken charges and spin densities:
               1          2
     1  C   -0.310294   0.447150
     2  H    0.124021  -0.012565
     3  H    0.109619  -0.010785
     4  C   -0.062372  -0.008862
     5  H    0.069481   0.004889
     6  H    0.095488  -0.001023
     7  H    0.098449   0.002157
     8  O   -0.163259   0.069540
     9  O   -0.211156   0.467792
    10  H    0.205974  -0.081312
    11  C   -0.050833  -0.254000
    12  C   -0.305894   0.401207
    13  H    0.142828   0.008671
    14  H    0.126751  -0.015402
    15  H    0.131199  -0.017456
 Sum of Mulliken charges =  -0.00000   1.00000
 Mulliken charges and spin densities with hydrogens summed into heavy atoms:
               1          2
     1  C   -0.076654   0.423800
     4  C    0.201044  -0.002839
     8  O   -0.163259   0.069540
     9  O   -0.005182   0.386480
    11  C    0.091995  -0.245329
    12  C   -0.047944   0.368349
 APT charges:
               1
     1  C    0.416910
     2  H   -0.044291
     3  H   -0.038708
     4  C    0.406604
     5  H   -0.026886
     6  H   -0.001493
     7  H   -0.031620
     8  O   -0.316769
     9  O    0.097746
    10  H   -0.382922
    11  C   -0.130409
    12  C   -0.045140
    13  H    0.027542
    14  H    0.017291
    15  H    0.052143
 Sum of APT charges =  -0.00000
 APT charges with hydrogens summed into heavy atoms:
               1
     1  C    0.333911
     4  C    0.346606
     8  O   -0.316769
     9  O   -0.285176
    11  C   -0.102867
    12  C    0.024294
 Electronic spatial extent (au):  <R**2>=            732.5180
 Charge=             -0.0000 electrons
 Dipole moment (field-independent basis, Debye):
    X=              1.2192    Y=              1.4490    Z=              1.1425  Tot=              2.2117
 Quadrupole moment (field-independent basis, Debye-Ang):
   XX=            -39.4695   YY=            -35.7855   ZZ=            -37.2182
   XY=             -3.5016   XZ=             -2.0258   YZ=              0.1771
 Traceless Quadrupole moment (field-independent basis, Debye-Ang):
   XX=             -1.9784   YY=              1.7056   ZZ=              0.2729
   XY=             -3.5016   XZ=             -2.0258   YZ=              0.1771
 Octapole moment (field-independent basis, Debye-Ang**2):
  XXX=            -23.3375  YYY=             -0.8826  ZZZ=             -1.7277  XYY=              0.0150
  XXY=              5.0585  XXZ=              0.6508  XZZ=              0.0610  YZZ=             -0.4475
  YYZ=             -1.5710  XYZ=             -0.3328
 Hexadecapole moment (field-independent basis, Debye-Ang**3):
 XXXX=           -609.7172 YYYY=           -268.6819 ZZZZ=            -96.9277 XXXY=             -3.8403
 XXXZ=             -5.8100 YYYX=             -3.2528 YYYZ=             -3.6173 ZZZX=              1.9466
 ZZZY=              1.2918 XXYY=           -137.8710 XXZZ=           -111.6378 YYZZ=            -62.6435
 XXYZ=              0.3064 YYXZ=             -0.6483 ZZXY=              1.8409
 N-N= 2.427939211993D+02 E-N=-1.205905755618D+03  KE= 3.063343722753D+02
  Exact polarizability:  96.954   3.650  74.333   1.861  -0.660  51.468
 Approx polarizability:  84.497   7.663  84.295   3.840  -0.104  61.296
                          Isotropic Fermi Contact Couplings
        Atom                 a.u.       MegaHertz       Gauss      10(-4) cm-1
     1  C(13)              0.06369      71.59686      25.54754      23.88214
     2  H(1)              -0.00336     -15.01205      -5.35667      -5.00748
     3  H(1)              -0.00298     -13.34070      -4.76029      -4.44998
     4  C(13)             -0.00535      -6.01621      -2.14673      -2.00679
     5  H(1)               0.00241      10.75132       3.83634       3.58625
     6  H(1)              -0.00019      -0.83789      -0.29898      -0.27949
     7  H(1)               0.00097       4.34098       1.54897       1.44799
     8  O(17)              0.02235     -13.54562      -4.83341      -4.51833
     9  O(17)              0.03202     -19.40785      -6.92520      -6.47376
    10  H(1)              -0.02115     -94.52242     -33.72795     -31.52929
    11  C(13)             -0.01037     -11.65324      -4.15816      -3.88710
    12  C(13)              0.00725       8.15389       2.90951       2.71985
    13  H(1)               0.00066       2.95170       1.05324       0.98458
    14  H(1)              -0.00317     -14.17980      -5.05970      -4.72987
    15  H(1)              -0.00323     -14.43605      -5.15114      -4.81535
 --------------------------------------------------------
       Center         ----  Spin Dipole Couplings  ----
                      3XX-RR        3YY-RR        3ZZ-RR
 --------------------------------------------------------
     1   Atom        0.475189     -0.241437     -0.233752
     2   Atom        0.003444      0.020909     -0.024353
     3   Atom       -0.000479     -0.026895      0.027374
     4   Atom       -0.004836      0.007382     -0.002546
     5   Atom       -0.002252      0.003516     -0.001265
     6   Atom       -0.001562      0.006335     -0.004773
     7   Atom       -0.000031      0.001671     -0.001639
     8   Atom        0.637121     -0.338285     -0.298836
     9   Atom        1.802691     -0.924098     -0.878593
    10   Atom        0.176994     -0.092388     -0.084606
    11   Atom       -0.073085      0.044217      0.028868
    12   Atom        0.254598     -0.111276     -0.143321
    13   Atom       -0.001874      0.002374     -0.000500
    14   Atom       -0.000855     -0.012921      0.013776
    15   Atom        0.002783      0.002895     -0.005678
 --------------------------------------------------------
                        XY            XZ            YZ
 --------------------------------------------------------
     1   Atom        0.014667      0.082837      0.003431
     2   Atom       -0.010731      0.000686      0.018076
     3   Atom        0.000537      0.006235      0.008182
     4   Atom       -0.004236     -0.002087      0.006035
     5   Atom        0.000460     -0.001021      0.006648
     6   Atom       -0.002825      0.000001      0.001620
     7   Atom       -0.005608     -0.004121      0.004431
     8   Atom        0.051482      0.211535      0.037598
     9   Atom        0.350159      0.455140      0.060934
    10   Atom       -0.011416      0.059991     -0.004666
    11   Atom        0.041956     -0.018252     -0.000203
    12   Atom       -0.118342      0.047468     -0.017276
    13   Atom        0.003786     -0.003668     -0.001802
    14   Atom       -0.003077     -0.001428      0.008659
    15   Atom        0.004298     -0.005424     -0.018254
 --------------------------------------------------------


 ---------------------------------------------------------------------------------
              Anisotropic Spin Dipole Couplings in Principal Axis System
 ---------------------------------------------------------------------------------

       Atom             a.u.   MegaHertz   Gauss  10(-4) cm-1        Axes

              Baa    -0.2444   -32.799   -11.703   -10.941 -0.0851 -0.5427  0.8356
     1 C(13)  Bbb    -0.2406   -32.290   -11.522   -10.771 -0.0794  0.8396  0.5373
              Bcc     0.4850    65.089    23.225    21.711  0.9932  0.0206  0.1146
 
              Baa    -0.0312   -16.657    -5.944    -5.556 -0.1261 -0.3481  0.9289
     2 H(1)   Bbb     0.0004     0.194     0.069     0.065  0.9309  0.2820  0.2321
              Bcc     0.0309    16.463     5.874     5.491 -0.3428  0.8940  0.2885
 
              Baa    -0.0281   -14.997    -5.351    -5.002  0.0141  0.9890 -0.1474
     3 H(1)   Bbb    -0.0018    -0.939    -0.335    -0.313  0.9794 -0.0433 -0.1974
              Bcc     0.0299    15.935     5.686     5.315  0.2016  0.1416  0.9692
 
              Baa    -0.0062    -0.832    -0.297    -0.278  0.9570  0.2089  0.2015
     4 C(13)  Bbb    -0.0054    -0.723    -0.258    -0.241 -0.0890 -0.4495  0.8888
              Bcc     0.0116     1.555     0.555     0.519 -0.2762  0.8685  0.4116
 
              Baa    -0.0062    -3.330    -1.188    -1.111  0.2659 -0.5513  0.7908
     5 H(1)   Bbb    -0.0020    -1.042    -0.372    -0.348  0.9638  0.1694 -0.2060
              Bcc     0.0082     4.372     1.560     1.458 -0.0204  0.8170  0.5763
 
              Baa    -0.0051    -2.701    -0.964    -0.901 -0.1404 -0.1734  0.9748
     6 H(1)   Bbb    -0.0024    -1.267    -0.452    -0.423  0.9445  0.2720  0.1844
              Bcc     0.0074     3.968     1.416     1.324 -0.2971  0.9465  0.1255
 
              Baa    -0.0051    -2.703    -0.964    -0.901  0.7474  0.2069  0.6314
     7 H(1)   Bbb    -0.0046    -2.480    -0.885    -0.827  0.3221  0.7183 -0.6167
              Bcc     0.0097     5.183     1.849     1.729 -0.5811  0.6642  0.4702
 
              Baa    -0.3689    26.695     9.525     8.904 -0.1158 -0.6865  0.7179
     8 O(17)  Bbb    -0.3171    22.946     8.188     7.654 -0.1861  0.7249  0.6632
              Bcc     0.6860   -49.640   -17.713   -16.558  0.9757  0.0568  0.2117
 
              Baa    -0.9691    70.122    25.021    23.390 -0.0881  0.9732 -0.2122
     9 O(17)  Bbb    -0.9531    68.968    24.610    23.005 -0.1838  0.1935  0.9637
              Bcc     1.9222  -139.091   -49.631   -46.396  0.9790  0.1239  0.1618
 
              Baa    -0.0985   -52.560   -18.755   -17.532 -0.1850  0.3538  0.9169
    10 H(1)   Bbb    -0.0921   -49.144   -17.536   -16.393  0.1148  0.9343 -0.3374
              Bcc     0.1906   101.704    36.291    33.925  0.9760 -0.0429  0.2135
 
              Baa    -0.0891   -11.956    -4.266    -3.988  0.9438 -0.2968  0.1455
    11 C(13)  Bbb     0.0302     4.056     1.447     1.353 -0.0746  0.2377  0.9685
              Bcc     0.0589     7.900     2.819     2.635  0.3220  0.9249 -0.2022
 
              Baa    -0.1511   -20.276    -7.235    -6.763  0.0602  0.5424  0.8379
    12 C(13)  Bbb    -0.1442   -19.355    -6.906    -6.456  0.2983  0.7913 -0.5337
              Bcc     0.2953    39.631    14.141    13.219  0.9526 -0.2821  0.1142
 
              Baa    -0.0054    -2.901    -1.035    -0.968  0.8167 -0.2794  0.5049
    13 H(1)   Bbb    -0.0010    -0.515    -0.184    -0.172 -0.2268  0.6490  0.7262
              Bcc     0.0064     3.416     1.219     1.139  0.5306  0.7076 -0.4667
 
              Baa    -0.0159    -8.493    -3.031    -2.833  0.1683  0.9485 -0.2685
    14 H(1)   Bbb    -0.0007    -0.379    -0.135    -0.127  0.9773 -0.1250  0.1711
              Bcc     0.0166     8.873     3.166     2.960 -0.1287  0.2912  0.9480
 
              Baa    -0.0203   -10.808    -3.856    -3.605  0.0723  0.6092  0.7897
    15 H(1)   Bbb     0.0003     0.134     0.048     0.045  0.9280 -0.3312  0.1706
              Bcc     0.0200    10.673     3.809     3.560  0.3654  0.7205 -0.5893
 

 ---------------------------------------------------------------------------------

 Calling FoFJK, ICntrl=  10100127 FMM=F ISym2X=0 I1Cent= 0 IOpClX= 1 NMat=1 NMatS=1 NMatT=0.
 ***** Axes restored to original set *****
 -------------------------------------------------------------------
 Center     Atomic                   Forces (Hartrees/Bohr)
 Number     Number              X              Y              Z
 -------------------------------------------------------------------
      1        6           0.003191643   -0.000986692    0.000323423
      2        1          -0.000588357    0.000427127   -0.000249915
      3        1          -0.000610590   -0.000311808    0.000569962
      4        6           0.001227117    0.003606400   -0.005164846
      5        1           0.001535016    0.000665617    0.000612619
      6        1           0.000004736   -0.000530803   -0.000079132
      7        1          -0.000506426    0.000459776    0.000102832
      8        8           0.000582709    0.009355099    0.010214496
      9        8           0.002720204   -0.012132110   -0.004722328
     10        1          -0.006641342   -0.000363159   -0.001152219
     11        6           0.000214680   -0.003819251    0.000978304
     12        6          -0.001248302    0.004014692   -0.001193286
     13        1          -0.000017585    0.000202884   -0.000825523
     14        1          -0.000045840   -0.000031223    0.001176059
     15        1           0.000182337   -0.000556549   -0.000590444
 -------------------------------------------------------------------
 Cartesian Forces:  Max     0.012132110 RMS     0.003366232
 FormGI is forming the generalized inverse of G from B-inverse, IUseBI=4.

 GradGradGradGradGradGradGradGradGradGradGradGradGradGradGradGradGradGrad
 Berny optimization.
 Internal  Forces:  Max     0.014894583 RMS     0.002725448
 Search for a saddle point.
 Step number   1 out of a maximum of  100
 All quantities printed in internal units (Hartrees-Bohrs-Radians)
 Swapping is turned off.
 Second derivative matrix not updated -- analytic derivatives used.
 ITU=  0
     Eigenvalues ---   -0.08671   0.00254   0.00555   0.00614   0.01996
     Eigenvalues ---    0.02123   0.02798   0.03779   0.03847   0.04272
     Eigenvalues ---    0.04636   0.06832   0.07979   0.08429   0.08479
     Eigenvalues ---    0.09716   0.10614   0.11235   0.12541   0.13420
     Eigenvalues ---    0.13699   0.16862   0.17494   0.17599   0.18421
     Eigenvalues ---    0.24195   0.29566   0.32936   0.33609   0.33958
     Eigenvalues ---    0.34655   0.34871   0.35218   0.35598   0.35755
     Eigenvalues ---    0.36017   0.36381   0.44552   0.60120
 Eigenvectors required to have negative eigenvalues:
                          R10       R3        R9        R4        D5
   1                   -0.73936   0.58662   0.15587  -0.11668  -0.11302
                          D4        A2        D6        D7        A3
   1                   -0.10816  -0.09121   0.07598   0.07112   0.06071
 RFO step:  Lambda0=1.046403725D-04 Lambda=-1.18645911D-03.
 Linear search not attempted -- option 19 set.
 Iteration  1 RMS(Cart)=  0.06084466 RMS(Int)=  0.00088692
 Iteration  2 RMS(Cart)=  0.00162046 RMS(Int)=  0.00004165
 Iteration  3 RMS(Cart)=  0.00000181 RMS(Int)=  0.00004165
 Iteration  4 RMS(Cart)=  0.00000000 RMS(Int)=  0.00004165
 Variable       Old X    -DE/DX   Delta X   Delta X   Delta X     New X
                                 (Linear)    (Quad)   (Total)
    R1        2.05183  -0.00031   0.00000  -0.00138  -0.00138   2.05045
    R2        2.05309  -0.00054   0.00000  -0.00191  -0.00191   2.05118
    R3        2.47083  -0.00115   0.00000   0.01274   0.01275   2.48357
    R4        2.73768  -0.00016   0.00000  -0.00691  -0.00691   2.73077
    R5        2.06232  -0.00158   0.00000  -0.00395  -0.00395   2.05837
    R6        2.05597  -0.00051   0.00000  -0.00069  -0.00069   2.05528
    R7        2.05917  -0.00059   0.00000  -0.00242  -0.00242   2.05675
    R8        2.67694   0.00649   0.00000   0.01484   0.01484   2.69178
    R9        2.58073   0.01489   0.00000   0.04766   0.04766   2.62839
   R10        2.32684   0.00574   0.00000  -0.01399  -0.01399   2.31286
   R11        2.53013   0.00358   0.00000   0.00795   0.00795   2.53807
   R12        2.04885  -0.00085   0.00000  -0.00236  -0.00236   2.04648
   R13        2.04783  -0.00116   0.00000  -0.00340  -0.00340   2.04443
   R14        2.04216  -0.00083   0.00000  -0.00254  -0.00254   2.03962
    A1        1.98423   0.00009   0.00000   0.00080   0.00068   1.98491
    A2        1.74436  -0.00010   0.00000  -0.00070  -0.00074   1.74363
    A3        2.03336  -0.00084   0.00000   0.00080   0.00082   2.03417
    A4        1.82474   0.00003   0.00000  -0.00414  -0.00417   1.82057
    A5        2.02284  -0.00027   0.00000   0.00318   0.00327   2.02611
    A6        1.80359   0.00146   0.00000  -0.00196  -0.00192   1.80168
    A7        1.92074  -0.00038   0.00000  -0.00084  -0.00083   1.91990
    A8        1.92045  -0.00046   0.00000   0.00130   0.00127   1.92171
    A9        1.92120   0.00145   0.00000   0.00852   0.00850   1.92971
   A10        1.93138  -0.00028   0.00000  -0.00262  -0.00263   1.92875
   A11        1.84788  -0.00065   0.00000  -0.00911  -0.00911   1.83878
   A12        1.92110   0.00035   0.00000   0.00253   0.00251   1.92361
   A13        1.89281   0.00185   0.00000  -0.00595  -0.00595   1.88686
   A14        1.79761   0.00590   0.00000   0.00428   0.00428   1.80189
   A15        2.16844   0.00124   0.00000   0.00343   0.00343   2.17187
   A16        2.04093  -0.00055   0.00000   0.00035   0.00035   2.04128
   A17        2.07284  -0.00069   0.00000  -0.00385  -0.00385   2.06899
   A18        2.11293   0.00023   0.00000   0.00130   0.00130   2.11423
   A19        2.12239  -0.00002   0.00000  -0.00158  -0.00158   2.12081
   A20        2.04778  -0.00021   0.00000   0.00031   0.00031   2.04808
   A21        3.06852   0.00364   0.00000   0.01999   0.02002   3.08853
   A22        2.99662   0.00191   0.00000   0.04039   0.04041   3.03703
    D1       -2.36127  -0.00041   0.00000   0.02891   0.02904  -2.33223
    D2        1.83379   0.00029   0.00000   0.04014   0.03994   1.87374
    D3       -0.27114  -0.00089   0.00000   0.03263   0.03270  -0.23843
    D4       -2.62307   0.00070   0.00000  -0.02416  -0.02416  -2.64724
    D5        0.56680   0.00055   0.00000  -0.02256  -0.02256   0.54424
    D6       -0.21744  -0.00055   0.00000  -0.01773  -0.01774  -0.23518
    D7        2.97244  -0.00070   0.00000  -0.01613  -0.01614   2.95630
    D8        1.76722   0.00029   0.00000  -0.02247  -0.02246   1.74476
    D9       -1.32609   0.00014   0.00000  -0.02087  -0.02086  -1.34695
   D10        1.07202   0.00029   0.00000   0.02511   0.02515   1.09716
   D11       -3.13578   0.00023   0.00000   0.02336   0.02335  -3.11243
   D12       -1.04780  -0.00030   0.00000   0.01629   0.01628  -1.03152
   D13       -1.58798  -0.00314   0.00000  -0.05624  -0.05624  -1.64421
   D14        0.04645  -0.00012   0.00000  -0.00226  -0.00226   0.04418
   D15       -3.10986  -0.00009   0.00000  -0.00025  -0.00025  -3.11011
   D16        3.13893   0.00003   0.00000  -0.00378  -0.00378   3.13516
   D17       -0.01737   0.00006   0.00000  -0.00177  -0.00177  -0.01914
         Item               Value     Threshold  Converged?
 Maximum Force            0.014895     0.000450     NO 
 RMS     Force            0.002725     0.000300     NO 
 Maximum Displacement     0.223656     0.001800     NO 
 RMS     Displacement     0.061515     0.001200     NO 
 Predicted change in Energy=-5.496665D-04
 GradGradGradGradGradGradGradGradGradGradGradGradGradGradGradGradGradGrad

                          Input orientation:                          
 ---------------------------------------------------------------------
 Center     Atomic      Atomic             Coordinates (Angstroms)
 Number     Number       Type             X           Y           Z
 ---------------------------------------------------------------------
      1          6           0       -1.233130   -1.179518   -0.418203
      2          1           0       -1.495230   -2.173622   -0.071224
      3          1           0       -1.359012   -1.042880   -1.487621
      4          6           0        1.738145    1.053421   -0.392378
      5          1           0        0.945387    1.135169   -1.134879
      6          1           0        1.852491    1.997572    0.135247
      7          1           0        2.672650    0.769321   -0.872549
      8          8           0        1.389920    0.101726    0.608627
      9          8           0        1.266203   -1.141981   -0.001655
     10          1           0        0.069334   -1.216294   -0.246482
     11          6           0       -1.645651   -0.074413    0.416527
     12          6           0       -1.914706    1.160861   -0.036898
     13          1           0       -1.694266   -0.256176    1.483011
     14          1           0       -1.872785    1.390461   -1.093288
     15          1           0       -2.192002    1.959956    0.633542
 ---------------------------------------------------------------------
                    Distance matrix (angstroms):
                    1          2          3          4          5
     1  C    0.000000
     2  H    1.085049   0.000000
     3  H    1.085437   1.817501   0.000000
     4  C    3.716874   4.579482   3.896975   0.000000
     5  H    3.258426   4.246890   3.190389   1.089245   0.000000
     6  H    4.463324   5.352450   4.710817   1.087605   1.783197
     7  H    4.388566   5.164712   4.462811   1.088383   1.784964
     8  O    3.094569   3.736776   3.641567   1.424428   2.074952
     9  O    2.534084   2.948666   3.018223   2.279295   2.563696
    10  H    1.314249   1.842567   1.900176   2.820961   2.661972
    11  C    1.445062   2.160371   2.155429   3.657377   3.253218
    12  C    2.467248   3.360940   2.696270   3.671679   3.063716
    13  H    2.163289   2.476259   3.091271   4.124751   3.969503
    14  H    2.733074   3.726909   2.518058   3.693736   2.830017
    15  H    3.447014   4.250724   3.769647   4.161775   3.694699
                    6          7          8          9         10
     6  H    0.000000
     7  H    1.787992   0.000000
     8  O    2.008057   2.070015   0.000000
     9  O    3.196760   2.527771   1.390884   0.000000
    10  H    3.695172   3.333448   2.052398   1.223911   0.000000
    11  C    4.075443   4.584902   3.046739   3.129452   2.164404
    12  C    3.862834   4.679257   3.529734   3.927150   3.103418
    13  H    4.413086   5.066582   3.225654   3.428303   2.650142
    14  H    3.969327   4.592986   3.899050   4.178298   3.359178
    15  H    4.075247   5.229796   4.035320   4.688782   3.997080
                   11         12         13         14         15
    11  C    0.000000
    12  C    1.343089   0.000000
    13  H    1.082953   2.089668   0.000000
    14  H    2.115890   1.081865   3.062776   0.000000
    15  H    2.117606   1.079322   2.424991   1.846122   0.000000
 Stoichiometry    C4H9O2(2)
 Framework group  C1[X(C4H9O2)]
 Deg. of freedom    39
 Full point group                 C1      NOp   1
 Largest Abelian subgroup         C1      NOp   1
 Largest concise Abelian subgroup C1      NOp   1
                         Standard orientation:                         
 ---------------------------------------------------------------------
 Center     Atomic      Atomic             Coordinates (Angstroms)
 Number     Number       Type             X           Y           Z
 ---------------------------------------------------------------------
      1          6           0        1.254475   -1.152370    0.413411
      2          1           0        1.542897   -2.137908    0.062897
      3          1           0        1.368729   -1.019036    1.484551
      4          6           0       -1.768899    1.009345    0.376682
      5          1           0       -0.984125    1.105588    1.125895
      6          1           0       -1.901609    1.953579   -0.146476
      7          1           0       -2.700078    0.700282    0.847813
      8          8           0       -1.390297    0.072079   -0.626906
      9          8           0       -1.241721   -1.171882   -0.022717
     10          1           0       -0.045364   -1.219123    0.231165
     11          6           0        1.647022   -0.032897   -0.411749
     12          6           0        1.883009    1.205756    0.050784
     13          1           0        1.708263   -0.207207   -1.478826
     14          1           0        1.827398    1.428108    1.108092
     15          1           0        2.146390    2.015133   -0.612900
 ---------------------------------------------------------------------
 Rotational constants (GHZ):           4.7469447           2.1546983           1.6802753
 Standard basis: CC-pVTZ (5D, 7F)
 There are   345 symmetry adapted cartesian basis functions of A   symmetry.
 There are   306 symmetry adapted basis functions of A   symmetry.
   306 basis functions,   465 primitive gaussians,   345 cartesian basis functions
    25 alpha electrons       24 beta electrons
       nuclear repulsion energy       240.5608654273 Hartrees.
 NAtoms=   15 NActive=   15 NUniq=   15 SFac= 1.00D+00 NAtFMM=   60 NAOKFM=F Big=F
 Integral buffers will be    131072 words long.
 Raffenetti 2 integral format.
 Two-electron integral symmetry is turned on.
 Nuclear repulsion after empirical dispersion term =      240.5532681006 Hartrees.
 One-electron integrals computed using PRISM.
 NBasis=   306 RedAO= T EigKep=  4.18D-04  NBF=   306
 NBsUse=   306 1.00D-06 EigRej= -1.00D+00 NBFU=   306
 Initial guess from the checkpoint file:  "/localscratch/347852/Gau-29135.chk"
 B after Tr=    -0.000000    0.000000    0.000000
         Rot=    0.999937   -0.000993    0.001822   -0.011070 Ang=  -1.29 deg.
 Initial guess <Sx>= 0.0000 <Sy>= 0.0000 <Sz>= 0.5000 <S**2>= 0.8131 S= 0.5310
 ExpMin= 1.03D-01 ExpMax= 1.53D+04 ExpMxC= 5.22D+02 IAcc=3 IRadAn=         5 AccDes= 0.00D+00
 Harris functional with IExCor=  419 and IRadAn=       5 diagonalized for initial guess.
 HarFok:  IExCor=  419 AccDes= 0.00D+00 IRadAn=         5 IDoV= 1 UseB2=F ITyADJ=14
 ICtDFT=  3500011 ScaDFX=  1.000000  1.000000  1.000000  1.000000
 FoFCou: FMM=F IPFlag=           0 FMFlag=      100000 FMFlg1=           0
         NFxFlg=           0 DoJE=T BraDBF=F KetDBF=T FulRan=T
         wScrn=  0.000000 ICntrl=       500 IOpCl=  0 I1Cent=   200000004 NGrid=           0
         NMat0=    1 NMatS0=      1 NMatT0=    0 NMatD0=    1 NMtDS0=    0 NMtDT0=    0
 Petite list used in FoFCou.
 Requested convergence on RMS density matrix=1.00D-08 within 128 cycles.
 Requested convergence on MAX density matrix=1.00D-06.
 Requested convergence on             energy=1.00D-06.
 No special actions if energy rises.
 Integral accuracy reduced to 1.0D-05 until final iterations.
 Initial convergence to 1.0D-05 achieved.  Increase integral accuracy.
 SCF Done:  E(UB2PLYPD3) =  -307.580064724     A.U. after   16 cycles
            NFock= 16  Conv=0.99D-08     -V/T= 2.0042
 <Sx>= 0.0000 <Sy>= 0.0000 <Sz>= 0.5000 <S**2>= 0.8174 S= 0.5332
 <L.S>=  0.00000000000    
 Annihilation of the first spin contaminant:
 S**2 before annihilation     0.8174,   after     0.7520
 DoSCS=T DFT=T ScalE2(SS,OS)=  0.270000  0.270000
 ExpMin= 1.03D-01 ExpMax= 1.53D+04 ExpMxC= 5.22D+02 IAcc=3 IRadAn=         5 AccDes= 0.00D+00
 HarFok:  IExCor=  205 AccDes= 0.00D+00 IRadAn=         5 IDoV=-2 UseB2=F ITyADJ=14
 ICtDFT= 12500011 ScaDFX=  1.000000  1.000000  1.000000  1.000000
 Range of M.O.s used for correlation:     7   306
 NBasis=   306 NAE=    25 NBE=    24 NFC=     6 NFV=     0
 NROrb=    300 NOA=    19 NOB=    18 NVA=   281 NVB=   282

 **** Warning!!: The largest alpha MO coefficient is  0.11958838D+02


 **** Warning!!: The largest beta MO coefficient is  0.11952534D+02

 DoSCS=T DFT=T ScalE2(SS,OS)=  0.270000  0.270000
 Disk-based method using ON**2 memory for 19 occupieds at a time.
 Estimated scratch disk usage=  1428465172 words.
 Actual    scratch disk usage=  1309100052 words.
 JobTyp=2 Pass  1:  I=   7 to  25 NPSUse= 40 ParTrn=T ParDer=T DoDerP=T.
 (rs|ai) integrals will be sorted in core.
 Actual    scratch disk usage=  1309100052 words.
 JobTyp=3 Pass  1:  I=   7 to  24 NPSUse= 40 ParTrn=T ParDer=T DoDerP=T.
 (rs|ai) integrals will be sorted in core.
 Spin components of T(2) and E(2):
     alpha-alpha T2 =       0.6515525387D-01 E2=     -0.4697069279D-01
     alpha-beta  T2 =       0.4003958872D+00 E2=     -0.2904884486D+00
     beta-beta   T2 =       0.7370236395D-01 E2=     -0.4650926593D-01
 (S**2,0)=  0.81745D+00           (S**2,1)=  0.75760D+00
 Scaling Projection term by:   0.270000
 E(PUHF)=      -0.30759056779D+03        E(PMP2)=      -0.30796563275D+03
 E2(B2PLYPD3) =    -0.3839684073D+00 E(B2PLYPD3) =    -0.30796403313128D+03
          IDoAtm=111111111111111
          Differentiating once with respect to electric field.
                with respect to dipole field.
          Differentiating once with respect to nuclear coordinates.
 Keep R1 and R2 ints in memory in canonical form, NReq=2252584249.
          There are     1 degrees of freedom in the 1st order CPHF.  IDoFFX=0 NUNeed=     1.
 LinEq1:  Iter=  0 NonCon=     1 RMS=1.08D-03 Max=6.50D-02 NDo=     1
 AX will form     1 AO Fock derivatives at one time.
 LinEq1:  Iter=  1 NonCon=     1 RMS=3.89D-04 Max=1.50D-02 NDo=     1
 LinEq1:  Iter=  2 NonCon=     1 RMS=2.54D-04 Max=9.42D-03 NDo=     1
 LinEq1:  Iter=  3 NonCon=     1 RMS=1.32D-04 Max=5.12D-03 NDo=     1
 LinEq1:  Iter=  4 NonCon=     1 RMS=8.87D-05 Max=3.92D-03 NDo=     1
 LinEq1:  Iter=  5 NonCon=     1 RMS=6.10D-05 Max=2.86D-03 NDo=     1
 LinEq1:  Iter=  6 NonCon=     1 RMS=3.18D-05 Max=9.27D-04 NDo=     1
 LinEq1:  Iter=  7 NonCon=     1 RMS=9.19D-06 Max=3.27D-04 NDo=     1
 LinEq1:  Iter=  8 NonCon=     1 RMS=4.30D-06 Max=2.12D-04 NDo=     1
 LinEq1:  Iter=  9 NonCon=     1 RMS=2.13D-06 Max=5.54D-05 NDo=     1
 LinEq1:  Iter= 10 NonCon=     1 RMS=9.68D-07 Max=1.90D-05 NDo=     1
 LinEq1:  Iter= 11 NonCon=     1 RMS=5.00D-07 Max=1.39D-05 NDo=     1
 LinEq1:  Iter= 12 NonCon=     1 RMS=2.49D-07 Max=5.69D-06 NDo=     1
 LinEq1:  Iter= 13 NonCon=     1 RMS=9.53D-08 Max=2.09D-06 NDo=     1
 LinEq1:  Iter= 14 NonCon=     1 RMS=3.08D-08 Max=6.18D-07 NDo=     1
 LinEq1:  Iter= 15 NonCon=     1 RMS=1.39D-08 Max=3.59D-07 NDo=     1
 LinEq1:  Iter= 16 NonCon=     1 RMS=5.44D-09 Max=1.13D-07 NDo=     1
 LinEq1:  Iter= 17 NonCon=     1 RMS=2.20D-09 Max=6.75D-08 NDo=     1
 LinEq1:  Iter= 18 NonCon=     1 RMS=7.92D-10 Max=3.90D-08 NDo=     1
 LinEq1:  Iter= 19 NonCon=     1 RMS=2.65D-10 Max=1.50D-08 NDo=     1
 LinEq1:  Iter= 20 NonCon=     1 RMS=1.05D-10 Max=5.58D-09 NDo=     1
 LinEq1:  Iter= 21 NonCon=     1 RMS=3.32D-11 Max=1.04D-09 NDo=     1
 LinEq1:  Iter= 22 NonCon=     0 RMS=7.69D-12 Max=1.92D-10 NDo=     1
 Linear equations converged to 1.000D-10 1.000D-09 after    22 iterations.
 End of Minotr F.D. properties file   721 does not exist.
 End of Minotr F.D. properties file   722 does not exist.
 End of Minotr F.D. properties file   788 does not exist.
 Calling FoFJK, ICntrl=  10002127 FMM=F ISym2X=0 I1Cent= 0 IOpClX= 1 NMat=1 NMatS=1 NMatT=0.
 ***** Axes restored to original set *****
 -------------------------------------------------------------------
 Center     Atomic                   Forces (Hartrees/Bohr)
 Number     Number              X              Y              Z
 -------------------------------------------------------------------
      1        6          -0.000042105   -0.000048644   -0.000037714
      2        1          -0.000007216    0.000014145    0.000028551
      3        1          -0.000031637   -0.000033110    0.000001616
      4        6           0.000146493    0.000134012   -0.000121195
      5        1           0.000059017    0.000008607    0.000025911
      6        1           0.000015901   -0.000012594    0.000002631
      7        1           0.000002990   -0.000016047   -0.000002209
      8        8          -0.000003833    0.000974499    0.000592288
      9        8           0.000115766   -0.001077887   -0.000558103
     10        1          -0.000109868    0.000092733    0.000055319
     11        6          -0.000059268   -0.000132155    0.000017797
     12        6          -0.000056376    0.000093168   -0.000011277
     13        1          -0.000025804   -0.000008107   -0.000001888
     14        1           0.000000778    0.000009378    0.000006311
     15        1          -0.000004838    0.000002002    0.000001963
 -------------------------------------------------------------------
 Cartesian Forces:  Max     0.001077887 RMS     0.000254421

 GradGradGradGradGradGradGradGradGradGradGradGradGradGradGradGradGradGrad
 Berny optimization.
 FormGI is forming the generalized inverse of G from B-inverse, IUseBI=4.
 Internal  Forces:  Max     0.001217174 RMS     0.000230325
 Search for a saddle point.
 Step number   2 out of a maximum of  100
 All quantities printed in internal units (Hartrees-Bohrs-Radians)
 Swapping is turned off.
 Update second derivatives using D2CorX and points    1    2
 ITU=  0  0
     Eigenvalues ---   -0.08667   0.00343   0.00556   0.00782   0.02011
     Eigenvalues ---    0.02126   0.02798   0.03779   0.03847   0.04272
     Eigenvalues ---    0.04625   0.06780   0.07944   0.08429   0.08477
     Eigenvalues ---    0.09710   0.10614   0.11236   0.12498   0.13417
     Eigenvalues ---    0.13670   0.16863   0.17488   0.17600   0.18421
     Eigenvalues ---    0.24165   0.29066   0.32928   0.33588   0.33952
     Eigenvalues ---    0.34631   0.34871   0.35217   0.35597   0.35755
     Eigenvalues ---    0.35980   0.36382   0.44053   0.60108
 Eigenvectors required to have negative eigenvalues:
                          R10       R3        R9        R4        D5
   1                   -0.73805   0.58744   0.16017  -0.11654  -0.11153
                          D4        A2        D6        D7        A3
   1                   -0.10641  -0.09223   0.07706   0.07193   0.06049
 RFO step:  Lambda0=8.488689959D-08 Lambda=-1.38541597D-05.
 Linear search not attempted -- option 19 set.
 Iteration  1 RMS(Cart)=  0.01019227 RMS(Int)=  0.00002080
 Iteration  2 RMS(Cart)=  0.00003628 RMS(Int)=  0.00000057
 Iteration  3 RMS(Cart)=  0.00000000 RMS(Int)=  0.00000057
 Variable       Old X    -DE/DX   Delta X   Delta X   Delta X     New X
                                 (Linear)    (Quad)   (Total)
    R1        2.05045  -0.00000   0.00000   0.00000   0.00000   2.05045
[...]
 ! D11   D(6,4,8,9)           -178.0365         -DE/DX =    0.0                 !
 ! D12   D(7,4,8,9)            -58.8338         -DE/DX =    0.0                 !
 ! D13   D(4,8,9,10)           -94.8            -DE/DX =    0.0                 !
 ! D14   D(1,11,12,14)           2.5272         -DE/DX =    0.0                 !
 ! D15   D(1,11,12,15)        -178.1921         -DE/DX =    0.0                 !
 ! D16   D(13,11,12,14)        179.6133         -DE/DX =    0.0                 !
 ! D17   D(13,11,12,15)         -1.106          -DE/DX =    0.0                 !
 --------------------------------------------------------------------------------
 GradGradGradGradGradGradGradGradGradGradGradGradGradGradGradGradGradGrad


 ----------------------------------------------------------------------

 Electric dipole moment (input orientation):
 (Debye = 10**-18 statcoulomb cm , SI units = C m)
                  (au)            (Debye)         (10**-30 SI)
   Tot        0.861435D+00      0.218955D+01      0.730355D+01
   x         -0.459372D+00     -0.116761D+01     -0.389472D+01
   y          0.614353D+00      0.156153D+01      0.520870D+01
   z         -0.391941D+00     -0.996214D+00     -0.332301D+01

 Dipole polarizability, Alpha (input orientation).
 (esu units = cm**3 , SI units = C**2 m**2 J**-1)
 Alpha(0;0):
               (au)            (10**-24 esu)      (10**-40 SI)
   iso        0.751927D+02      0.111424D+02      0.123976D+02
   aniso      0.420429D+02      0.623012D+01      0.693194D+01
   xx         0.993475D+02      0.147218D+02      0.163802D+02
   yx        -0.398926D+01     -0.591148D+00     -0.657740D+00
   yy         0.746697D+02      0.110649D+02      0.123114D+02
   zx         0.128250D+01      0.190047D+00      0.211456D+00
   zy         0.738039D+00      0.109366D+00      0.121686D+00
   zz         0.515608D+02      0.764052D+01      0.850122D+01

 ----------------------------------------------------------------------

 Dipole orientation:
     6         -2.04442070          2.62232425          0.01210767
     1         -3.27839913          3.50084664         -1.36986746
     1         -1.09539234          3.96274909          1.24087152
     6          3.58152084         -1.63343751         -0.00463084
     1          3.17004205         -0.35573614          1.55581000
     1          3.70000173         -3.56701533          0.68203931
     1          5.33894604         -1.08606752         -0.92212902
     8          1.56286357         -1.63305157         -1.78573660
     8          1.37079661          0.78761341         -2.80203582
     1         -0.24992235          1.78824104         -1.48598241
     6         -2.97412916          0.34845464          1.20525485
     6         -2.31954883         -0.42218138          3.53332283
     1         -4.21533024         -0.84077715          0.09468490
     1         -1.07492976          0.69753677          4.70668547
     1         -3.02774771         -2.16698806          4.31701259

 Electric dipole moment (dipole orientation):
 (Debye = 10**-18 statcoulomb cm , SI units = C m)
                  (au)            (Debye)         (10**-30 SI)
   Tot        0.861435D+00      0.218955D+01      0.730355D+01
   x          0.000000D+00      0.000000D+00      0.000000D+00
   y          0.000000D+00      0.000000D+00      0.000000D+00
   z          0.861435D+00      0.218955D+01      0.730355D+01

 Dipole polarizability, Alpha (dipole orientation).
 (esu units = cm**3 , SI units = C**2 m**2 J**-1)
 Alpha(0;0):
               (au)            (10**-24 esu)      (10**-40 SI)
   iso        0.751927D+02      0.111424D+02      0.123976D+02
   aniso      0.420429D+02      0.623012D+01      0.693194D+01
   xx         0.810882D+02      0.120160D+02      0.133696D+02
   yx        -0.120568D+02     -0.178663D+01     -0.198790D+01
   yy         0.644085D+02      0.954436D+01      0.106195D+02
   zx        -0.184008D+02     -0.272672D+01     -0.303388D+01
   zy        -0.421547D+01     -0.624668D+00     -0.695036D+00
   zz         0.800812D+02      0.118668D+02      0.132036D+02

 ----------------------------------------------------------------------
 1\1\GINC-N104\Freq\UB2PLYPD3-FC\CC-pVTZ\C4H9O2(2)\ROOT\12-Jun-2019\0\\
 #N Geom=AllCheck Guess=TCheck SCRF=Check GenChk UB2PLYPD3(FC)/CC-pVTZ 
 Freq\\Title Card Required\\0,2\C,-1.2365482531,-1.1807993515,-0.415650
 1282\H,-1.4934512536,-2.1754141071,-0.0662464417\H,-1.3646496675,-1.04
 71674549,-1.4851751173\C,1.7520802429,1.0558617004,-0.3931075322\H,0.9
 598199051,1.1480727325,-1.134895008\H,1.8762007943,1.996921287,0.13785
 28544\H,2.6835058385,0.7642851957,-0.874707971\O,1.3951924642,0.104330
 4787,0.6052282636\O,1.2653878356,-1.1389602251,-0.0094269105\H,0.06557
 97366,-1.2108730091,-0.2465702375\C,-1.6545509904,-0.0764553302,0.4175
 810562\C,-1.9262296281,1.1579351328,-0.036826544\H,-1.7051087108,-0.25
 79339861,1.4840377598\H,-1.8823212221,1.3875103807,-1.0931321484\H,-2.
 2075580915,1.9562905563,0.6328151047\\Version=ES64L-G16RevB.01\State=2
 -A\HF=-307.5800562\MP2=-307.9640411\PUHF=-307.5905591\PMP2-0=-307.9656
 41\S2=0.81742\S2-1=0.757614\S2A=0.751999\RMSD=2.015e-09\RMSF=3.872e-06
 \ZeroPoint=0.1193238\Thermal=0.1275162\Dipole=-0.4593723,0.6143525,-0.
 3919409\DipoleDeriv=1.1972567,0.1786978,0.1114694,-0.4317456,0.0766112
 ,-0.0524019,-0.0878838,-0.0106164,0.0619717,-0.1061847,-0.1064401,-0.0
 06408,-0.0075092,-0.0560775,0.0185685,-0.0307016,0.0273288,0.0372386,-
 0.0532654,-0.0587219,-0.0594528,-0.0085576,0.0207666,0.0504743,0.00387
 87,-0.0154369,-0.0813831,0.4809405,0.0568906,-0.0178783,0.3988419,0.41
 54801,-0.0600608,-0.3678212,-0.1289734,0.3458296,-0.0605506,0.0308146,
 -0.1131408,-0.0701439,0.002968,-0.0079032,0.035373,0.0552708,-0.031784
 3,0.0513972,-0.0142119,0.0093195,-0.0886277,-0.0704105,-0.0387618,0.01
 28969,-0.0610395,0.0055934,-0.1301187,-0.0137816,0.0795011,0.0528447,0
 .017038,-0.0310369,0.1357529,0.0444242,0.0192,-0.2779718,-0.045773,-0.
 0088246,-1.2856864,-0.3522794,-0.0517207,-0.4106182,0.0261656,-0.36382
 14,0.5351026,0.127598,0.1316878,1.1657883,-0.1466671,0.2085032,0.81509
 04,0.0975223,-0.1209884,-1.3418491,-0.0996684,-0.1413957,-0.1535246,0.
 0891289,-0.0185646,-0.3138269,-0.0555545,0.0872953,-0.4514669,-0.09023
 82,-0.0073298,0.6693522,-0.0883546,-0.0348776,-0.0949624,0.0240488,0.0
 982712,-0.2149063,-0.0465581,-0.0366895,-0.3576678,0.0117863,0.0566412
 ,0.2082839,0.0114041,0.0964926,0.1138584,0.0235963,0.0122924,0.0348598
 ,0.0403997,0.0113372,0.0508856,0.0156449,-0.0728126,0.0967071,0.018185
 5,0.0304037,0.0146402,0.0451422,-0.0158595,0.0019709,0.0398661,-0.0846
 645,0.161051,0.0396103,0.0164456,0.0671357,-0.005532,-0.0343376,0.0416
 819,-0.0700548,0.0035619\Polar=99.3475319,-3.9892617,74.6697171,1.2825
 003,0.7380387,51.5607532\PG=C01 [X(C4H9O2)]\NImag=1\\0.13646219,0.0362
 6075,0.57965686,-0.00905602,-0.02645560,0.59371199,-0.03299297,-0.0775
 2341,0.02478750,0.04639042,-0.05986429,-0.28178326,0.08245547,0.066763
 10,0.30310718,0.02628504,0.08243955,-0.08621169,-0.02722326,-0.0888856
 1,0.08214043,-0.02829774,0.00254817,-0.04366006,0.00133043,-0.00097987
 ,0.00840204,0.03440403,0.00482612,-0.06098667,0.03720626,0.00541361,-0
 .00004847,0.02630288,-0.00666201,0.05630979,-0.03022684,0.03534792,-0.
 31815085,-0.00223497,-0.00090698,-0.00581082,0.03514760,-0.03667497,0.
 34170545,-0.00266636,0.00011037,0.00165458,0.00015834,0.00017483,-0.00
 005033,0.00080073,-0.00001416,-0.00026526,0.57687858,-0.01039674,0.003
 24906,-0.00058336,0.00192997,-0.00014356,0.00049370,0.00152462,0.00016
 017,0.00021254,-0.02716940,0.52779361,0.00866267,-0.00288642,0.0015218
 0,-0.00155886,0.00033585,-0.00055444,-0.00106499,-0.00007418,-0.000373
 40,0.02402895,0.09399893,0.53980212,-0.00042336,0.00006543,-0.00061901
 ,0.00019079,-0.00003989,0.00000217,-0.00003204,-0.00013830,0.00012251,
 -0.20153600,0.01189912,-0.13242654,0.20928075,0.00126695,-0.00018562,-
 0.00026245,-0.00006911,-0.00002217,-0.00012763,-0.00058177,-0.00012764
 ,-0.00006208,0.01017291,-0.05055891,0.00272953,-0.01223325,0.05271940,
 -0.00315243,0.00116714,0.00021935,0.00044243,-0.00011128,0.00011184,0.
 00038304,0.00001848,0.00009678,-0.12734640,0.00789768,-0.15972898,0.14
 104537,-0.01853061,0.18310175,0.00040301,-0.00024576,-0.00004290,-0.00
 009201,0.00002287,0.00002266,0.00002546,0.00003074,0.00005370,-0.05430
 750,-0.02280737,-0.01320672,-0.00141240,-0.02069931,-0.01126582,0.0509
 3203,0.00098639,-0.00040256,-0.00000829,-0.00014976,0.00005091,-0.0000
 7214,-0.00012427,-0.00001020,-0.00000478,-0.02475136,-0.24291127,-0.11
 251192,0.00070524,0.00453564,0.00100086,0.03070326,0.27353243,-0.00017
 820,0.00004345,-0.00009963,-0.00000160,-0.00002609,0.00005953,0.000124
 73,0.00001935,0.00004406,-0.01602065,-0.12442471,-0.12382888,-0.000239
 37,-0.01804507,-0.00839261,0.01472136,0.12261701,0.12587163,0.00098555
 ,-0.00019969,-0.00007033,-0.00016416,-0.00002548,-0.00004699,-0.000196
 76,-0.00000983,0.00002981,-0.24723206,0.06827581,0.09242833,-0.0189440
 2,0.00849138,0.00997989,0.00568240,-0.00107929,-0.00345824,0.26333013,
 0.00041454,-0.00015147,-0.00013410,-0.00010329,0.00001616,-0.00000524,
 -0.00015928,-0.00000633,-0.00001087,0.07335437,-0.07444348,-0.04023098
 ,0.00021687,0.00107560,-0.00178858,0.02389052,-0.00509883,-0.01013181,
 -0.07127737,0.07620080,-0.00199538,0.00073243,-0.00025349,0.00038060,-
 0.00005264,0.00010559,0.00021184,0.00003345,0.00006129,0.09026776,-0.0
 3373298,-0.09384232,-0.01884770,0.00579077,0.01078055,0.01295068,-0.00
 425238,-0.00521983,-0.10852998,0.03007960,0.10856552,-0.00347391,0.002
 06439,-0.00026966,0.00009996,0.00014974,-0.00026701,-0.00116885,-0.000
 14433,0.00006864,-0.07218524,-0.01757345,0.03708472,0.01262751,0.01298
 395,-0.01387133,-0.00163436,-0.00343076,0.00330258,-0.00384112,-0.0264
 9129,0.02695478,0.10245159,0.04615358,-0.01194495,0.00039943,-0.006734
 65,0.00035126,-0.00183383,-0.00541081,-0.00064454,-0.00014257,-0.02172
 967,-0.09501593,0.07354614,-0.00193300,-0.01398138,0.01618261,-0.00935
 322,-0.02610870,0.02259699,-0.00659751,-0.00386937,0.00587448,0.072773
 24,0.34240432,0.01781268,-0.00472783,-0.00105214,-0.00248311,-0.000107
 38,-0.00065657,-0.00240602,-0.00043545,0.00015732,0.02876279,0.0432886
 5,-0.18092330,0.00933663,0.02652003,-0.02727662,-0.00479539,-0.0120311
 7,0.01194649,0.01037844,0.02030876,-0.02106319,-0.03682475,-0.01311927
 ,0.31358479,-0.14314770,0.02219632,-0.00418954,0.01151612,-0.00082462,
 0.00295982,0.00790083,0.00131632,-0.00060829,-0.00297814,-0.02259102,-
 0.00295553,0.00046335,0.00359110,-0.00079566,0.00063507,-0.00207515,0.
 00193368,0.00211044,0.00080113,-0.00422789,-0.03761683,0.01399184,0.01
 411253,0.07453064,-0.05342598,0.01631776,0.00168599,0.00753743,0.00041
 846,0.00126294,0.00553242,0.00061991,-0.00025446,-0.00736887,-0.067268
 55,-0.01363905,0.00074471,0.00621106,-0.00577191,-0.00195325,-0.003644
 57,0.00711859,0.00225232,0.00651025,-0.00444237,-0.01492426,-0.1849659
 5,-0.05416139,-0.02634524,0.25734869,-0.05416670,0.01229949,0.00336602
 ,0.00578760,-0.00060485,0.00152215,0.00500797,0.00032779,0.00076648,-0
 .00340330,0.00962469,0.02011263,0.00101768,0.00196465,0.00021830,0.001
 79496,0.00501244,-0.00014815,-0.00066783,0.00232476,0.00035768,-0.0011
 5967,-0.08758815,-0.08584025,-0.02034500,0.06510134,0.06593760,0.11351
 758,-0.03998788,-0.01163668,-0.02708834,-0.00000897,-0.00516092,-0.016
 33850,-0.00193363,0.00024522,0.00326241,0.01635597,-0.01072680,0.00092
 943,-0.00255430,0.00427464,-0.00028524,-0.00037872,-0.00041347,-0.0015
 4738,-0.00109782,0.00297292,0.00060242,-0.07474486,-0.03147571,0.07708
 355,0.07683530,0.05817796,-0.11396361,0.01340327,-0.02715183,-0.002332
 09,-0.01704283,-0.00204877,-0.00092553,0.00106120,-0.00063682,0.000636
 60,-0.00203018,0.00094589,-0.00345233,0.00052653,-0.00003028,0.0010064
 9,0.00018691,-0.00040713,0.00038068,0.00004115,-0.00021429,0.00044651,
 -0.02136424,-0.01708446,-0.00997660,0.02903222,-0.01820923,0.00291951,
 -0.01442463,0.06679776,0.03096237,-0.01063343,-0.02864242,0.00075148,0
 .00128993,-0.00063942,-0.01839835,0.00015793,-0.00329957,0.00224774,0.
 00345825,-0.00119316,-0.00031431,-0.00023127,0.00092251,-0.00027811,0.
 00009250,-0.00022621,-0.00038342,-0.00037722,0.00040957,-0.01099493,-0
 .02090561,-0.01094264,0.02729160,0.01039506,-0.00035239,-0.03347359,0.
 00963362,0.03793830,-0.04657951,0.03623206,0.03422902,0.00011924,-0.00
 726815,-0.00709575,-0.00009010,-0.00444210,-0.00320330,0.00041271,0.00
 067578,-0.00062857,-0.00062501,-0.00048528,0.00042282,0.00005120,-0.00
 039126,0.00017006,-0.00018195,0.00042607,0.00000105,0.00539698,-0.0062
 8374,-0.00266997,0.01070562,0.01185546,0.00900437,-0.04138762,0.011074
 15,0.00243602,0.17945280,-0.01957746,-0.16661093,-0.06245426,0.0231100
 8,-0.01822834,-0.01460614,0.00323553,0.00781885,0.00459668,-0.00138885
 ,-0.00207992,0.00171129,0.00085631,0.00062820,-0.00095863,0.00010409,0
 .00072122,-0.00023614,0.00051613,-0.00041563,-0.00032385,-0.00907629,0
 .01348182,0.00601344,-0.02805100,-0.02022837,-0.01784450,0.06738466,0.
 00302049,0.01463758,-0.12641250,0.67313944,0.02592517,-0.07977641,-0.1
 6702341,-0.00221333,0.01042177,0.00972899,0.01413711,-0.02492119,-0.01
 761289,0.00071332,0.00090694,-0.00162711,0.00055791,0.00006856,0.00010
 177,-0.00003168,-0.00013497,0.00005918,0.00005222,0.00006900,0.0001673
 8,-0.00177955,-0.00134138,-0.00071486,-0.00638693,0.00062064,-0.000387
 50,0.01122745,0.00106541,0.00305037,-0.02997445,-0.10587892,0.66719754
 ,-0.00079737,0.01802128,-0.00068307,0.00249644,0.00049627,0.00203178,-
 0.00117401,-0.00008316,-0.00000166,-0.00041673,-0.00051944,0.00100921,
 -0.00043148,-0.00004954,-0.00042635,0.00017367,0.00007475,0.00008550,-
 0.00015332,0.00015479,-0.00027348,-0.00122006,0.00142660,0.00035954,-0
 .00133544,-0.00178327,-0.00131238,0.00448285,0.00044596,0.00096184,-0.
 07036012,0.08329578,-0.02457814,0.15363510,0.04020189,-0.05517453,-0.0
 0920187,-0.00281376,-0.00231961,-0.00382281,-0.00285780,0.00061743,0.0
 0105344,0.00065086,0.00056956,0.00026781,-0.00080338,-0.00037114,-0.00
 007137,0.00015880,-0.00029173,0.00013539,-0.00040518,0.00040636,-0.000
 08739,0.00489685,-0.00343553,-0.00185488,0.00970988,0.00771727,0.00699
 149,-0.02707630,-0.00502039,-0.00777060,0.07528314,-0.40612102,0.14528
 932,-0.16471629,0.74364330,-0.01023765,-0.01190534,0.01664707,0.003629
 71,-0.00401539,-0.00145634,0.00088386,-0.00060690,0.00184796,-0.000295
 89,-0.00131079,0.00135985,0.00042854,0.00018136,-0.00047976,-0.0000010
 1,0.00027186,-0.00013053,0.00016543,-0.00006711,-0.00026655,-0.0020700
 7,0.00590759,0.00218482,-0.00627066,-0.00712988,-0.00532133,0.01501236
 ,0.00055425,0.00325624,-0.01518215,0.11638708,-0.16736711,-0.04305543,
 -0.05221225,0.65879888,0.00294052,-0.00083083,0.01090157,-0.00121459,0
 .00065853,-0.00064119,0.00279984,0.00196209,0.00079986,-0.00005553,0.0
 0001192,-0.00008990,0.00004916,0.00004275,0.00004782,-0.00002646,-0.00
 001102,0.00000444,0.00001293,-0.00001403,-0.00000084,-0.00008955,-0.00
 094161,-0.00013465,0.00005591,0.00082557,0.00004997,0.00074867,-0.0004
 6146,-0.00037346,-0.04569078,0.00005843,0.01338965,0.00596709,0.002829
 74,-0.00675744,0.03102828,-0.00021747,0.00617769,-0.02501783,-0.000786
 86,0.00109957,0.00067250,0.00303826,-0.00310516,-0.00285603,-0.0000419
 0,-0.00011798,0.00013170,0.00003226,-0.00000668,-0.00004680,-0.0000049
 3,-0.00000625,0.00001562,-0.00000332,0.00000257,-0.00004433,0.00008577
 ,0.00033783,0.00010003,-0.00063351,-0.00048243,-0.00027554,0.00134009,
 0.00027229,0.00021763,0.00224638,-0.06522644,0.04320153,-0.00087019,-0
 .00296453,0.03227561,-0.00585775,0.06730696,-0.00106455,0.00406324,-0.
 01524819,-0.00012294,-0.00015817,0.00091991,0.00163797,-0.00254107,-0.
 00025957,-0.00016489,-0.00004193,0.00003610,-0.00000818,-0.00000641,-0
 .00000593,0.00003264,0.00003073,-0.00000205,0.00000581,-0.00002280,0.0
 0001941,-0.00018570,0.00096208,0.00060628,-0.00060576,-0.00113526,-0.0
 0056884,0.00123312,0.00004899,-0.00011687,0.01543170,0.04645879,-0.325
 89365,0.00106345,0.00043126,-0.00887154,-0.01700790,-0.04973479,0.3469
 7139,-0.00513394,-0.00186072,-0.00016868,0.00023814,-0.00056590,0.0000
 7344,0.00027412,0.00004894,-0.00024128,-0.00009847,0.00048415,-0.00093
 179,-0.00010999,0.00003774,0.00031956,-0.00003429,-0.00007248,0.000034
 16,0.00013277,-0.00004667,0.00019285,0.00017906,-0.00132842,-0.0001314
 1,0.00047589,0.00119690,0.00076074,-0.00189990,0.00022468,-0.00035396,
 0.00551202,0.00127631,-0.00675661,-0.03684558,0.00397572,0.01456097,0.
 00971528,0.00357174,0.00051094,0.02472650,-0.00150727,0.00144886,0.001
 40985,-0.00007385,0.00007836,-0.00029040,-0.00006099,-0.00006906,-0.00
 102598,0.00008093,0.00006756,-0.00012355,0.00008405,0.00009748,0.00004
 805,-0.00004936,-0.00000874,-0.00004426,0.00000904,-0.00001824,0.00001
 889,0.00000519,-0.00030471,-0.00006054,0.00027001,0.00033896,0.0001631
 0,-0.00068171,-0.00001399,-0.00004141,-0.00104840,-0.00279492,0.031175
 79,0.00337118,-0.06784384,0.05190715,0.00365365,-0.00395871,0.00173873
 ,-0.00515482,0.06565438,0.00048263,-0.00192068,0.00143203,-0.00002777,
 -0.00014365,0.00018264,-0.00039488,0.00086407,0.00040153,-0.00002845,0
 .00022776,-0.00060385,-0.00001018,0.00004346,0.00032173,-0.00002166,-0
 .00002032,0.00001372,0.00008915,-0.00003397,0.00015168,0.00007817,-0.0
 0056104,-0.00005928,0.00033750,0.00046818,0.00043690,-0.00088606,-0.00
 000006,-0.00026226,0.00084129,0.00130639,-0.00970425,0.01409176,0.0560
 3673,-0.32620781,0.00054943,0.00194002,0.00122753,-0.01506237,-0.06422
 630,0.34500011,0.00920402,0.00314952,-0.00117672,-0.00098781,0.0013118
 3,0.00070850,-0.00023744,-0.00017031,0.00031425,-0.00003673,-0.0000999
 2,0.00037581,-0.00002670,0.00008580,-0.00005758,-0.00011059,-0.0000055
 5,-0.00006499,0.00000655,-0.00006853,-0.00005722,-0.00012761,0.0007122
 1,0.00015839,-0.00039928,-0.00097924,-0.00054637,0.00188368,-0.0006727
 5,-0.00008092,0.00326450,0.00466878,0.00571785,-0.05402103,0.06096583,
 0.04918945,-0.00624076,-0.00189856,-0.00075572,0.00286839,0.00110235,-
 0.00003855,0.04496081,0.00147571,-0.00245841,0.00329285,0.00054334,-0.
 00052774,-0.00060226,-0.00010340,0.00010874,0.00009154,-0.00004989,-0.
 00024625,0.00019717,0.00001731,0.00001644,-0.00004213,0.00001602,0.000
 04980,-0.00001899,0.00001185,0.00000589,-0.00004020,0.00004547,0.00078
 029,0.00024359,-0.00038827,-0.00068325,-0.00041622,0.00097280,-0.00021
 923,0.00007703,0.00853841,-0.01710444,-0.02076610,0.06073527,-0.209411
 58,-0.13023726,-0.00192600,0.00067128,-0.00009339,-0.00178717,0.007326
 61,0.00601940,-0.06810145,0.22169186,-0.00005280,0.00221249,-0.0002164
 5,0.00008651,0.00050902,0.00055820,-0.00001185,0.00032354,0.00042622,-
 0.00009998,-0.00001538,-0.00015705,-0.00004554,-0.00003286,0.00000931,
 0.00006728,0.00001056,0.00005327,0.00002771,0.00002055,0.00002672,-0.0
 0006621,0.00002251,0.00004914,-0.00024987,-0.00011842,-0.00009929,0.00
 062954,-0.00000545,0.00009795,-0.00378213,0.01119121,0.01002554,0.0507
 2743,-0.13518429,-0.17399385,-0.00073737,-0.00057934,0.00118603,0.0071
 9345,-0.02064910,-0.01233044,-0.05368618,0.14229496,0.17436471\\0.0000
 0221,-0.00000111,0.00000112,0.00000188,-0.00000006,0.00000235,-0.00000
 168,-0.00000265,0.00000041,-0.00000024,0.00000171,-0.00000005,-0.00000
 424,0.00000081,-0.00000071,0.00000101,0.00000003,-0.00000013,-0.000001
 26,0.00000025,-0.00000203,-0.00000538,0.00001042,0.00001030,0.00000250
 ,-0.00001249,-0.00001232,-0.00000115,0.00000156,0.00000177,0.00000249,
 0.00000075,-0.00000194,0.00000575,0.00000252,0.00000004,-0.00000177,-0
 .00000087,0.00000040,-0.00000025,-0.00000045,0.00000031,0.00000013,-0.
 00000042,0.00000049\\\@


 IT IS BETTER TO THINK YOU ARE HALF DRY THAN TO KNOW YOU
 ARE ALL WET.  -- SNOOPY
 Job cpu time:       1 days 13 hours  4 minutes 23.5 seconds.
 Elapsed time:       0 days  0 hours 57 minutes 21.5 seconds.
 File lengths (MBytes):  RWF=  57000 Int=      0 D2E=      0 Chk=     16 Scr=      1
 Normal termination of Gaussian 16 at Wed Jun 12 13:37:54 2019.
