 Entering Gaussian System, Link 0=g16
 Initial command:
 /ichec/packages/gaussian/16b01/l1.exe "/localscratch/347858/Gau-62820.inp" -scrdir="/localscratch/347858/"
 Entering Link 1 = /ichec/packages/gaussian/16b01/l1.exe PID=     62828.
  
 Copyright (c) 1988-2017, Gaussian, Inc.  All Rights Reserved.
  
 This is part of the Gaussian(R) 16 program.  It is based on
 the Gaussian(R) 09 system (copyright 2009, Gaussian, Inc.),
 the Gaussian(R) 03 system (copyright 2003, Gaussian, Inc.),
 the Gaussian(R) 98 system (copyright 1998, Gaussian, Inc.),
 the Gaussian(R) 94 system (copyright 1995, Gaussian, Inc.),
 the Gaussian 92(TM) system (copyright 1992, Gaussian, Inc.),
 the Gaussian 90(TM) system (copyright 1990, Gaussian, Inc.),
 the Gaussian 88(TM) system (copyright 1988, Gaussian, Inc.),
 the Gaussian 86(TM) system (copyright 1986, Carnegie Mellon
 University), and the Gaussian 82(TM) system (copyright 1983,
 Carnegie Mellon University). Gaussian is a federally registered
 trademark of Gaussian, Inc.
  
 This software contains proprietary and confidential information,
 including trade secrets, belonging to Gaussian, Inc.
  
 This software is provided under written license and may be
 used, copied, transmitted, or stored only in accord with that
 written license.
  
 The following legend is applicable only to US Government
 contracts under FAR:
  
                    RESTRICTED RIGHTS LEGEND
  
 Use, reproduction and disclosure by the US Government is
 subject to restrictions as set forth in subparagraphs (a)
 and (c) of the Commercial Computer Software - Restricted
 Rights clause in FAR 52.227-19.
  
 Gaussian, Inc.
 340 Quinnipiac St., Bldg. 40, Wallingford CT 06492
  
  
 ---------------------------------------------------------------
 Warning -- This program may not be used in any manner that
 competes with the business of Gaussian, Inc. or will provide
 assistance to any competitor of Gaussian, Inc.  The licensee
 of this program is prohibited from giving any competitor of
 Gaussian, Inc. access to this program.  By using this program,
 the user acknowledges that Gaussian, Inc. is engaged in the
 business of creating and licensing software in the field of
 computational chemistry and represents and warrants to the
 licensee that it is not a competitor of Gaussian, Inc. and that
 it will not use this program in any manner prohibited above.
 ---------------------------------------------------------------
  

 Cite this work as:
 Gaussian 16, Revision B.01,
 M. J. Frisch, G. W. Trucks, H. B. Schlegel, G. E. Scuseria, 
 M. A. Robb, J. R. Cheeseman, G. Scalmani, V. Barone, 
 G. A. Petersson, H. Nakatsuji, X. Li, M. Caricato, A. V. Marenich, 
 J. Bloino, B. G. Janesko, R. Gomperts, B. Mennucci, H. P. Hratchian, 
 J. V. Ortiz, A. F. Izmaylov, J. L. Sonnenberg, D. Williams-Young, 
 F. Ding, F. Lipparini, F. Egidi, J. Goings, B. Peng, A. Petrone, 
 T. Henderson, D. Ranasinghe, V. G. Zakrzewski, J. Gao, N. Rega, 
 G. Zheng, W. Liang, M. Hada, M. Ehara, K. Toyota, R. Fukuda, 
 J. Hasegawa, M. Ishida, T. Nakajima, Y. Honda, O. Kitao, H. Nakai, 
 T. Vreven, K. Throssell, J. A. Montgomery, Jr., J. E. Peralta, 
 F. Ogliaro, M. J. Bearpark, J. J. Heyd, E. N. Brothers, K. N. Kudin, 
 V. N. Staroverov, T. A. Keith, R. Kobayashi, J. Normand, 
 K. Raghavachari, A. P. Rendell, J. C. Burant, S. S. Iyengar, 
 J. Tomasi, M. Cossi, J. M. Millam, M. Klene, C. Adamo, R. Cammi, 
 J. W. Ochterski, R. L. Martin, K. Morokuma, O. Farkas, 
 J. B. Foresman, and D. J. Fox, Gaussian, Inc., Wallingford CT, 2016.
 
 ******************************************
 Gaussian 16:  ES64L-G16RevB.01 20-Dec-2017
                14-Jun-2019 
 ******************************************
 %mem=80GB
 %nproc=40
 Will use up to   40 processors via shared memory.
 ----------------------------------------------------------------------
 # opt=(calcfc,ts,noeigentest,maxcyc=500,modredundant) uB2PLYPD3/cc-pvt
 z scf=maxcyc=500 nosymm
 ----------------------------------------------------------------------
 1/5=1,6=500,10=4,11=1,18=120,38=1/1,3;
 2/9=110,12=2,15=1,17=6,18=5,40=1/2;
 3/5=16,6=1,11=2,25=1,30=1,71=2,74=-60,116=2,140=1/1,2,3;
 4//1;
 5/5=2,7=500,38=5/2;
 8/6=3,8=1,10=1,19=11,30=-1/1;
 9/15=3,16=-3/6;
 11/6=1,8=1,15=11,17=12,24=-1,27=1,28=-2,29=300,31=1,32=6,42=3/1,2,10;
 10/6=2,21=1,31=1/2;
 8/6=4,8=1,10=1,19=11,30=-1/11,4;
 10/5=1,20=4,31=1/2;
 11/12=2,14=11,16=1,17=2,28=-2,31=1,42=3,76=2/2,10,12;
 6/7=2,8=2,9=2,10=2/1;
 7/10=1,12=2,25=1,30=1,44=2/1,2,3,16;
 1/5=1,6=500,10=4,11=1,18=20/3(2);
 2/9=110,15=1/2;
 99//99;
 2/9=110,15=1/2;
 3/5=16,6=1,11=2,25=1,30=1,71=1,74=-60,116=2/1,2,3;
 4/5=5,16=3,69=1/1;
 5/5=2,7=500,38=5/2;
 8/6=4,10=1/1;
 9/15=2,16=-3/6;
 10/5=1,31=1/2;
 7/12=2,30=1/1,2,3,16;
 1/5=1,6=500,11=1,18=20/3(-8);
 2/9=110,15=1/2;
 6/7=2,8=2,9=2,10=2/1;
 99/9=10/99;
 -------------------
 Title Card Required
 -------------------
 Symbolic Z-matrix:
 Charge =  0 Multiplicity = 2
 C                    -1.20541  -1.16546  -0.43248 
 H                    -1.49557  -2.15878  -0.10378 
 H                    -1.31899  -1.00894  -1.50158 
 C                     1.67097   1.0331   -0.39165 
 H                     0.87678   1.05131  -1.13995 
 H                     1.73414   1.99709   0.10876 
 H                     2.62112   0.781    -0.86179 
 O                     1.36409   0.09054   0.62032 
 O                     1.27943  -1.14634   0.04761 
 H                     0.0869   -1.23446  -0.24607 
 C                    -1.60683  -0.06113   0.41492 
 C                    -1.86513   1.17489  -0.03023 
 H                    -1.65493  -0.25237   1.48104 
 H                    -1.82532   1.40801  -1.08778 
 H                    -2.1339    1.97515   0.64444 
 
 Add virtual bond connecting atoms H10        and O9         Dist= 2.33D+00.
 Add virtual bond connecting atoms H10        and C1         Dist= 2.47D+00.
 The following ModRedundant input section has been read:
 D    *          1       9    *    R                                           
 D      11       1       9       8 S  36 10.000                                
 

 GradGradGradGradGradGradGradGradGradGradGradGradGradGradGradGradGradGrad
 Berny optimization.
 Initialization pass.
                           ----------------------------
                           !    Initial Parameters    !
                           ! (Angstroms and Degrees)  !
 --------------------------                            --------------------------
 ! Name  Definition              Value          Derivative Info.                !
 --------------------------------------------------------------------------------
 ! R1    R(1,2)                  1.0858         calculate D2E/DX2 analytically  !
 ! R2    R(1,3)                  1.0864         calculate D2E/DX2 analytically  !
 ! R3    R(1,10)                 1.3075         calculate D2E/DX2 analytically  !
 ! R4    R(1,11)                 1.4487         calculate D2E/DX2 analytically  !
 ! R5    R(4,5)                  1.0913         calculate D2E/DX2 analytically  !
 ! R6    R(4,6)                  1.088          calculate D2E/DX2 analytically  !
 ! R7    R(4,7)                  1.0897         calculate D2E/DX2 analytically  !
 ! R8    R(4,8)                  1.4166         calculate D2E/DX2 analytically  !
 ! R9    R(8,9)                  1.3657         calculate D2E/DX2 analytically  !
 ! R10   R(9,10)                 1.2313         calculate D2E/DX2 analytically  !
 ! R11   R(11,12)                1.3389         calculate D2E/DX2 analytically  !
 ! R12   R(11,13)                1.0842         calculate D2E/DX2 analytically  !
 ! R13   R(12,14)                1.0837         calculate D2E/DX2 analytically  !
 ! R14   R(12,15)                1.0807         calculate D2E/DX2 analytically  !
 ! A1    A(2,1,3)              113.688          calculate D2E/DX2 analytically  !
 ! A2    A(2,1,10)              99.9447         calculate D2E/DX2 analytically  !
 ! A3    A(2,1,11)             116.5028         calculate D2E/DX2 analytically  !
 ! A4    A(3,1,10)             104.5501         calculate D2E/DX2 analytically  !
 ! A5    A(3,1,11)             115.9001         calculate D2E/DX2 analytically  !
 ! A6    A(10,1,11)            103.3384         calculate D2E/DX2 analytically  !
 ! A7    A(5,4,6)              110.0502         calculate D2E/DX2 analytically  !
 ! A8    A(5,4,7)              110.0334         calculate D2E/DX2 analytically  !
 ! A9    A(5,4,8)              110.0768         calculate D2E/DX2 analytically  !
 ! A10   A(6,4,7)              110.6596         calculate D2E/DX2 analytically  !
 ! A11   A(6,4,8)              105.876          calculate D2E/DX2 analytically  !
 ! A12   A(7,4,8)              110.0708         calculate D2E/DX2 analytically  !
 ! A13   A(4,8,9)              108.4501         calculate D2E/DX2 analytically  !
 ! A14   A(8,9,10)             102.9957         calculate D2E/DX2 analytically  !
 ! A15   A(1,11,12)            124.2425         calculate D2E/DX2 analytically  !
 ! A16   A(1,11,13)            116.9365         calculate D2E/DX2 analytically  !
 ! A17   A(12,11,13)           118.7648         calculate D2E/DX2 analytically  !
 ! A18   A(11,12,14)           121.0621         calculate D2E/DX2 analytically  !
 ! A19   A(11,12,15)           121.6038         calculate D2E/DX2 analytically  !
 ! A20   A(14,12,15)           117.329          calculate D2E/DX2 analytically  !
 ! A21   L(1,10,9,5,-1)        175.8131         calculate D2E/DX2 analytically  !
 ! A22   L(1,10,9,5,-2)        171.6939         calculate D2E/DX2 analytically  !
 ! D1    D(11,1,9,8)           -15.5349         Scan                            !
 ! D2    D(2,1,11,12)         -150.291          calculate D2E/DX2 analytically  !
 ! D3    D(2,1,11,13)           32.4754         calculate D2E/DX2 analytically  !
 ! D4    D(3,1,11,12)          -12.4582         calculate D2E/DX2 analytically  !
 ! D5    D(3,1,11,13)          170.3082         calculate D2E/DX2 analytically  !
 ! D6    D(10,1,11,12)         101.2544         calculate D2E/DX2 analytically  !
 ! D7    D(10,1,11,13)         -75.9792         calculate D2E/DX2 analytically  !
 ! D8    D(5,4,8,9)             61.4222         calculate D2E/DX2 analytically  !
 ! D9    D(6,4,8,9)           -179.667          calculate D2E/DX2 analytically  !
 ! D10   D(7,4,8,9)            -60.0344         calculate D2E/DX2 analytically  !
 ! D11   D(4,8,9,10)           -90.9844         calculate D2E/DX2 analytically  !
 ! D12   D(1,11,12,14)           2.6612         calculate D2E/DX2 analytically  !
 ! D13   D(1,11,12,15)        -178.1818         calculate D2E/DX2 analytically  !
 ! D14   D(13,11,12,14)        179.8477         calculate D2E/DX2 analytically  !
 ! D15   D(13,11,12,15)         -0.9953         calculate D2E/DX2 analytically  !
 --------------------------------------------------------------------------------
 Trust Radius=3.00D-01 FncErr=1.00D-07 GrdErr=1.00D-07 EigMax=2.50D+02 EigMin=1.00D-04
 Number of optimizations in scan=  37
 Number of steps in this run=    100 maximum allowed number of steps=    100.
 Search for a saddle point of order  1.
 GradGradGradGradGradGradGradGradGradGradGradGradGradGradGradGradGradGrad

                          Input orientation:                          
 ---------------------------------------------------------------------
 Center     Atomic      Atomic             Coordinates (Angstroms)
 Number     Number       Type             X           Y           Z
 ---------------------------------------------------------------------
      1          6           0       -1.205406   -1.165462   -0.432481
      2          1           0       -1.495574   -2.158778   -0.103779
      3          1           0       -1.318987   -1.008944   -1.501577
      4          6           0        1.670970    1.033103   -0.391651
      5          1           0        0.876783    1.051311   -1.139947
      6          1           0        1.734137    1.997093    0.108764
      7          1           0        2.621117    0.781002   -0.861794
      8          8           0        1.364090    0.090539    0.620319
      9          8           0        1.279428   -1.146342    0.047605
     10          1           0        0.086901   -1.234463   -0.246067
     11          6           0       -1.606830   -0.061126    0.414918
     12          6           0       -1.865129    1.174890   -0.030232
     13          1           0       -1.654929   -0.252374    1.481036
     14          1           0       -1.825320    1.408005   -1.087775
     15          1           0       -2.133902    1.975150    0.644438
 ---------------------------------------------------------------------
                    Distance matrix (angstroms):
                    1          2          3          4          5
     1  C    0.000000
     2  H    1.085780   0.000000
     3  H    1.086446   1.818554   0.000000
     4  C    3.620621   4.505327   3.787048   0.000000
     5  H    3.122515   4.123881   3.032628   1.091335   0.000000
     6  H    4.351507   5.267587   4.577229   1.087971   1.785732
     7  H    4.314546   5.115079   4.374660   1.089664   1.786935
     8  O    3.047661   3.709639   3.593078   1.416575   2.063756
     9  O    2.530859   2.957800   3.028300   2.257483   2.530233
    10  H    1.307505   1.838160   1.898337   2.769896   2.578313
    11  C    1.448718   2.163693   2.157352   3.548502   3.134239
    12  C    2.464607   3.354895   2.689286   3.557348   2.960544
    13  H    2.167337   2.484232   3.095357   4.027532   3.870234
    14  H    2.726983   3.714690   2.503847   3.584576   2.726043
    15  H    3.447507   4.249312   3.764875   4.054378   3.619632
                    6          7          8          9         10
     6  H    0.000000
     7  H    1.790976   0.000000
     8  O    2.008375   2.062405   0.000000
     9  O    3.176741   2.518291   1.365666   0.000000
    10  H    3.644482   3.295978   2.034076   1.231312   0.000000
    11  C    3.935995   4.496077   2.981871   3.105334   2.163873
    12  C    3.694598   4.579634   3.467981   3.909273   3.108374
    13  H    4.292901   4.984104   3.157990   3.385905   2.642225
    14  H    3.801114   4.496110   3.850408   4.177707   3.368635
    15  H    3.905016   5.128833   3.973448   4.663769   4.003321
                   11         12         13         14         15
    11  C    0.000000
    12  C    1.338885   0.000000
    13  H    1.084203   2.089306   0.000000
    14  H    2.112858   1.083663   3.063443   0.000000
    15  H    2.115870   1.080664   2.427174   1.848631   0.000000
 Symmetry turned off by external request.
 Stoichiometry    C4H9O2(2)
 Framework group  C1[X(C4H9O2)]
 Deg. of freedom    39
 Full point group                 C1      NOp   1
 Rotational constants (GHZ):           4.7630655           2.2398865           1.7379136
 Standard basis: CC-pVTZ (5D, 7F)
   306 basis functions,   465 primitive gaussians,   345 cartesian basis functions
    25 alpha electrons       24 beta electrons
       nuclear repulsion energy       242.8016886380 Hartrees.
 NAtoms=   15 NActive=   15 NUniq=   15 SFac= 1.00D+00 NAtFMM=   60 NAOKFM=F Big=F
 Integral buffers will be    131072 words long.
 Raffenetti 2 integral format.
 Two-electron integral symmetry is turned off.
 Nuclear repulsion after empirical dispersion term =      242.7939211993 Hartrees.
 One-electron integrals computed using PRISM.
 NBasis=   306 RedAO= T EigKep=  4.02D-04  NBF=   306
 NBsUse=   306 1.00D-06 EigRej= -1.00D+00 NBFU=   306
 ExpMin= 1.03D-01 ExpMax= 1.53D+04 ExpMxC= 5.22D+02 IAcc=3 IRadAn=         5 AccDes= 0.00D+00
 Harris functional with IExCor=  419 and IRadAn=       5 diagonalized for initial guess.
 HarFok:  IExCor=  419 AccDes= 0.00D+00 IRadAn=         5 IDoV= 1 UseB2=F ITyADJ=14
 ICtDFT=  3500011 ScaDFX=  1.000000  1.000000  1.000000  1.000000
 FoFCou: FMM=F IPFlag=           0 FMFlag=      100000 FMFlg1=           0
         NFxFlg=           0 DoJE=T BraDBF=F KetDBF=T FulRan=T
         wScrn=  0.000000 ICntrl=       500 IOpCl=  0 I1Cent=   200000004 NGrid=           0
         NMat0=    1 NMatS0=      1 NMatT0=    0 NMatD0=    1 NMtDS0=    0 NMtDT0=    0
 Symmetry not used in FoFCou.
 Initial guess <Sx>= 0.0000 <Sy>= 0.0000 <Sz>= 0.5000 <S**2>= 0.7500 S= 0.5000
 Requested convergence on RMS density matrix=1.00D-08 within 500 cycles.
 Requested convergence on MAX density matrix=1.00D-06.
 Requested convergence on             energy=1.00D-06.
 No special actions if energy rises.
 Integral accuracy reduced to 1.0D-05 until final iterations.
 Initial convergence to 1.0D-05 achieved.  Increase integral accuracy.
 SCF Done:  E(UB2PLYPD3) =  -307.579929212     A.U. after   21 cycles
            NFock= 21  Conv=0.91D-08     -V/T= 2.0041
 <Sx>= 0.0000 <Sy>= 0.0000 <Sz>= 0.5000 <S**2>= 0.8129 S= 0.5310
 <L.S>=  0.00000000000    
 Annihilation of the first spin contaminant:
 S**2 before annihilation     0.8129,   after     0.7518
 DoSCS=T DFT=T ScalE2(SS,OS)=  0.270000  0.270000
 ExpMin= 1.03D-01 ExpMax= 1.53D+04 ExpMxC= 5.22D+02 IAcc=3 IRadAn=         5 AccDes= 0.00D+00
 HarFok:  IExCor=  205 AccDes= 0.00D+00 IRadAn=         5 IDoV=-2 UseB2=F ITyADJ=14
 ICtDFT= 12500011 ScaDFX=  1.000000  1.000000  1.000000  1.000000
 Range of M.O.s used for correlation:     7   306
 NBasis=   306 NAE=    25 NBE=    24 NFC=     6 NFV=     0
 NROrb=    300 NOA=    19 NOB=    18 NVA=   281 NVB=   282

 **** Warning!!: The largest alpha MO coefficient is  0.12055052D+02


 **** Warning!!: The largest beta MO coefficient is  0.12053475D+02

 DoSCS=T DFT=T ScalE2(SS,OS)=  0.270000  0.270000
 Disk-based method using ON**2 memory for 19 occupieds at a time.
 Permanent disk used for amplitudes=    70282596 words.
 Estimated scratch disk usage=  1393568908 words.
 Actual    scratch disk usage=  1347510924 words.
 JobTyp=2 Pass  1:  I=   7 to  25 NPSUse= 40 ParTrn=T ParDer=T DoDerP=T.
 (rs|ai) integrals will be sorted in core.
 Actual    scratch disk usage=  1347510924 words.
 JobTyp=3 Pass  1:  I=   7 to  24 NPSUse= 40 ParTrn=T ParDer=T DoDerP=T.
 (rs|ai) integrals will be sorted in core.
 Spin components of T(2) and E(2):
     alpha-alpha T2 =       0.6462237170D-01 E2=     -0.4688273575D-01
     alpha-beta  T2 =       0.3976955317D+00 E2=     -0.2899962824D+00
     beta-beta   T2 =       0.7373337376D-01 E2=     -0.4664368591D-01
 (S**2,0)=  0.81295D+00           (S**2,1)=  0.75617D+00
 Scaling Projection term by:   0.270000
 E(PUHF)=      -0.30759005640D+03        E(PMP2)=      -0.30796497376D+03
 E2(B2PLYPD3) =    -0.3835227040D+00 E(B2PLYPD3) =    -0.30796345191563D+03
 G2DrvN: will do    16 centers at a time, making    1 passes.
 Calling FoFCou, ICntrl=  3107 FMM=F I1Cent=   0 AccDes= 0.00D+00.
 End of G2Drv F.D. properties file   721 does not exist.
 End of G2Drv F.D. properties file   722 does not exist.
 End of G2Drv F.D. properties file   788 does not exist.
          IDoAtm=111111111111111
          Differentiating once with respect to electric field.
                with respect to dipole field.
          Differentiating once with respect to nuclear coordinates.
 Keep R1 and R2 ints in memory in canonical form, NReq=2252447529.
          There are    48 degrees of freedom in the 1st order CPHF.  IDoFFX=6 NUNeed=    48.
     45 vectors produced by pass  0 Test12= 2.87D-14 2.08D-09 XBig12= 9.64D+01 7.19D+00.
 AX will form    45 AO Fock derivatives at one time.
     45 vectors produced by pass  1 Test12= 2.87D-14 2.08D-09 XBig12= 1.03D+01 5.13D-01.
     45 vectors produced by pass  2 Test12= 2.87D-14 2.08D-09 XBig12= 8.77D-01 2.25D-01.
     45 vectors produced by pass  3 Test12= 2.87D-14 2.08D-09 XBig12= 1.35D-02 1.41D-02.
     45 vectors produced by pass  4 Test12= 2.87D-14 2.08D-09 XBig12= 1.54D-04 1.35D-03.
     45 vectors produced by pass  5 Test12= 2.87D-14 2.08D-09 XBig12= 1.81D-06 1.47D-04.
     45 vectors produced by pass  6 Test12= 2.87D-14 2.08D-09 XBig12= 1.54D-08 1.58D-05.
     19 vectors produced by pass  7 Test12= 2.87D-14 2.08D-09 XBig12= 9.77D-11 8.98D-07.
      3 vectors produced by pass  8 Test12= 2.87D-14 2.08D-09 XBig12= 6.16D-13 7.98D-08.
      2 vectors produced by pass  9 Test12= 2.87D-14 2.08D-09 XBig12= 5.64D-15 8.43D-09.
 InvSVY:  IOpt=1 It=  1 EMax= 8.88D-15
 Solved reduced A of dimension   339 with    48 vectors.
 End of Minotr F.D. properties file   721 does not exist.
 End of Minotr F.D. properties file   722 does not exist.
 End of Minotr F.D. properties file   788 does not exist.
 MDV= 10737418240.
 DoSCS=T DFT=T ScalE2(SS,OS)=  0.270000  0.270000
 Form MO integral derivatives with frozen-active canonical formalism.
 Discarding MO integrals.
 Reordered first order wavefunction length =    283226920
 In DefCFB: NBatch=  1 ICI= 25 ICA=282 LFMax= 71
            Large arrays: LIAPS=  5824508040 LIARS=  1191802500 words.
 In DefCFB: NBatch=  1 ICI= 25 ICA=282 LFMax= 71
            Large arrays: LIAPS=  5824508040 LIARS=  1191802500 words.
 Semi-Direct transformation.
 ModeAB=           4 MOrb=            25 LenV=   10734604189
 LASXX=    339668775 LTotXX=   339668775 LenRXX=   684905625
 LTotAB=   345236850 MaxLAS=   439591950 LenRXY=           0
 NonZer=  1024574400 LenScr=  1542889472 LnRSAI=   439591950
 LnScr1=   661974016 LExtra=           0 Total=   3329361063
 MaxDsk=          -1 SrtSym=           T ITran=            4
 JobTyp=1 Pass  1:  I=   1 to  25.
 (rs|ai) integrals will be sorted in core.
 ModeAB=           4 MOrb=            24 LenV=   10734604189
 LASXX=    326802342 LTotXX=   326802342 LenRXX=   606843570
 LTotAB=   280041228 MaxLAS=   422008272 LenRXY=           0
 NonZer=   933645912 LenScr=  1405961216 LnRSAI=   422008272
 LnScr1=   635495424 LExtra=           0 Total=   3070308482
 MaxDsk=          -1 SrtSym=           T ITran=            4
 JobTyp=2 Pass  1:  I=   1 to  24.
 (rs|ai) integrals will be sorted in core.
 DoSCS=T DFT=T ScalE2(SS,OS)=  0.270000  0.270000
 Spin components of T(2) and E(2):
     alpha-alpha T2 =       0.6462237170D-01 E2=     -0.4688273575D-01
     alpha-beta  T2 =       0.3976955317D+00 E2=     -0.2899962824D+00
     beta-beta   T2 =       0.7373337376D-01 E2=     -0.4664368591D-01
 E2(B2PLYPD3) =    -0.3835227040D+00 E(B2PLYPD3) =    -0.30796345191563D+03
 (S**2,0)=  0.81295D+00           (S**2,1)=  0.75617D+00
 Scaling Projection term by:   0.270000
 E(PUHF)=      -0.30759005640D+03        E(PMP2)=      -0.30796497376D+03
          IDoAtm=111111111111111
          Differentiating once with respect to electric field.
                with respect to dipole field.
          Differentiating once with respect to nuclear coordinates.
 Keep R1 and R2 ints in memory in canonical form, NReq=2252583484.
          There are     1 degrees of freedom in the 1st order CPHF.  IDoFFX=0 NUNeed=     1.
 LinEq1:  Iter=  0 NonCon=     1 RMS=1.06D-03 Max=6.39D-02 NDo=     1
 AX will form     1 AO Fock derivatives at one time.
 LinEq1:  Iter=  1 NonCon=     1 RMS=3.82D-04 Max=1.45D-02 NDo=     1
 LinEq1:  Iter=  2 NonCon=     1 RMS=2.54D-04 Max=9.41D-03 NDo=     1
 LinEq1:  Iter=  3 NonCon=     1 RMS=1.32D-04 Max=4.81D-03 NDo=     1
 LinEq1:  Iter=  4 NonCon=     1 RMS=8.74D-05 Max=3.87D-03 NDo=     1
 LinEq1:  Iter=  5 NonCon=     1 RMS=5.73D-05 Max=2.70D-03 NDo=     1
 LinEq1:  Iter=  6 NonCon=     1 RMS=3.09D-05 Max=9.20D-04 NDo=     1
 LinEq1:  Iter=  7 NonCon=     1 RMS=8.85D-06 Max=2.45D-04 NDo=     1
 LinEq1:  Iter=  8 NonCon=     1 RMS=4.01D-06 Max=1.68D-04 NDo=     1
 LinEq1:  Iter=  9 NonCon=     1 RMS=1.98D-06 Max=4.40D-05 NDo=     1
 LinEq1:  Iter= 10 NonCon=     1 RMS=9.04D-07 Max=1.79D-05 NDo=     1
 LinEq1:  Iter= 11 NonCon=     1 RMS=4.75D-07 Max=1.41D-05 NDo=     1
 LinEq1:  Iter= 12 NonCon=     1 RMS=2.32D-07 Max=5.80D-06 NDo=     1
 LinEq1:  Iter= 13 NonCon=     1 RMS=8.49D-08 Max=1.91D-06 NDo=     1
 LinEq1:  Iter= 14 NonCon=     1 RMS=2.62D-08 Max=5.82D-07 NDo=     1
 LinEq1:  Iter= 15 NonCon=     1 RMS=1.18D-08 Max=3.40D-07 NDo=     1
 LinEq1:  Iter= 16 NonCon=     1 RMS=4.67D-09 Max=1.62D-07 NDo=     1
 LinEq1:  Iter= 17 NonCon=     1 RMS=2.09D-09 Max=9.39D-08 NDo=     1
 LinEq1:  Iter= 18 NonCon=     1 RMS=8.00D-10 Max=4.59D-08 NDo=     1
 LinEq1:  Iter= 19 NonCon=     1 RMS=2.70D-10 Max=1.29D-08 NDo=     1
 LinEq1:  Iter= 20 NonCon=     1 RMS=9.79D-11 Max=3.60D-09 NDo=     1
 LinEq1:  Iter= 21 NonCon=     0 RMS=2.99D-11 Max=5.86D-10 NDo=     1
 Linear equations converged to 1.000D-10 1.000D-09 after    21 iterations.
 End of Minotr F.D. properties file   721 does not exist.
 End of Minotr F.D. properties file   722 does not exist.
 End of Minotr F.D. properties file   788 does not exist.
 Symmetrizing basis deriv contribution to polar:
 IMax=3 JMax=2 DiffMx= 0.00D+00
 G2DrvN: will do    16 centers at a time, making    1 passes.
 Calling FoFCou, ICntrl=  3107 FMM=F I1Cent=   0 AccDes= 0.00D+00.
 End of G2Drv F.D. properties file   721 does not exist.
 End of G2Drv F.D. properties file   722 does not exist.
 End of G2Drv F.D. properties file   788 does not exist.
 DoSCS=T DFT=T ScalE2(SS,OS)=  0.270000  0.270000
 R2 and R3 integrals will be kept in memory, NReq=  3583069605.
 DD1Dir will call FoFMem   1 times, MxPair=      1776
 NAB=   600 NAA=   300 NBB=   276.
 Discarding MO integrals.

 **********************************************************************

            Population analysis using the SCF Density.

 **********************************************************************

 Alpha  occ. eigenvalues --  -19.79421 -19.78718 -10.66016 -10.63032 -10.62904
 Alpha  occ. eigenvalues --  -10.62316  -1.29948  -1.01437  -0.92445  -0.80928
 Alpha  occ. eigenvalues --   -0.77561  -0.65461  -0.61416  -0.56892  -0.55893
 Alpha  occ. eigenvalues --   -0.55371  -0.51188  -0.49971  -0.46072  -0.44718
 Alpha  occ. eigenvalues --   -0.42848  -0.40175  -0.36291  -0.34936  -0.28133
 Alpha virt. eigenvalues --    0.06628   0.07998   0.10270   0.11367   0.12262
 Alpha virt. eigenvalues --    0.14198   0.15496   0.16144   0.16692   0.18707
 Alpha virt. eigenvalues --    0.21325   0.23770   0.27580   0.29209   0.30290
 Alpha virt. eigenvalues --    0.31257   0.32195   0.35507   0.36825   0.37422
 Alpha virt. eigenvalues --    0.42193   0.44631   0.46288   0.46470   0.48338
 Alpha virt. eigenvalues --    0.49608   0.51411   0.51697   0.52200   0.53155
 Alpha virt. eigenvalues --    0.53376   0.54409   0.56129   0.57374   0.57875
 Alpha virt. eigenvalues --    0.59349   0.62630   0.63560   0.66642   0.68875
 Alpha virt. eigenvalues --    0.69453   0.71321   0.72993   0.76078   0.77527
 Alpha virt. eigenvalues --    0.80082   0.81451   0.88226   0.89904   0.92740
 Alpha virt. eigenvalues --    0.94239   0.95198   0.95623   0.97524   0.98756
 Alpha virt. eigenvalues --    1.01156   1.04666   1.05443   1.05732   1.07844
 Alpha virt. eigenvalues --    1.10532   1.11660   1.12949   1.14155   1.15868
 Alpha virt. eigenvalues --    1.17645   1.18927   1.21070   1.21995   1.24103
 Alpha virt. eigenvalues --    1.26567   1.27625   1.29597   1.34843   1.35264
 Alpha virt. eigenvalues --    1.36625   1.37818   1.39002   1.41283   1.42774
 Alpha virt. eigenvalues --    1.44165   1.47984   1.49251   1.50297   1.52633
 Alpha virt. eigenvalues --    1.55078   1.56343   1.58665   1.61424   1.62742
 Alpha virt. eigenvalues --    1.71257   1.73094   1.77879   1.81332   1.83198
 Alpha virt. eigenvalues --    1.88972   1.98321   2.04867   2.05044   2.14011
 Alpha virt. eigenvalues --    2.16140   2.21368   2.22810   2.29340   2.31660
 Alpha virt. eigenvalues --    2.34311   2.37184   2.41267   2.42762   2.46454
 Alpha virt. eigenvalues --    2.49570   2.49728   2.52380   2.54066   2.57619
 Alpha virt. eigenvalues --    2.58625   2.65194   2.67964   2.71182   2.72151
 Alpha virt. eigenvalues --    2.78818   2.81309   2.83635   2.85166   2.89266
 Alpha virt. eigenvalues --    2.90214   2.91583   2.91798   2.93672   2.94288
 Alpha virt. eigenvalues --    2.97084   2.99571   3.00567   3.02336   3.04187
 Alpha virt. eigenvalues --    3.04604   3.07333   3.07906   3.10171   3.12838
 Alpha virt. eigenvalues --    3.13871   3.14610   3.16317   3.16518   3.17600
 Alpha virt. eigenvalues --    3.18826   3.22412   3.22751   3.24825   3.27541
 Alpha virt. eigenvalues --    3.28850   3.32246   3.36459   3.37130   3.40233
 Alpha virt. eigenvalues --    3.42440   3.44063   3.46322   3.46927   3.49728
 Alpha virt. eigenvalues --    3.51122   3.52186   3.53647   3.55459   3.56141
 Alpha virt. eigenvalues --    3.56955   3.60296   3.62816   3.65008   3.66509
 Alpha virt. eigenvalues --    3.70870   3.73833   3.78385   3.81000   3.81646
 Alpha virt. eigenvalues --    3.84242   3.84685   3.85821   3.89138   3.89720
 Alpha virt. eigenvalues --    3.94249   3.95216   3.96345   3.97628   3.98579
 Alpha virt. eigenvalues --    4.00916   4.05496   4.05844   4.07052   4.09381
 Alpha virt. eigenvalues --    4.12022   4.12421   4.13340   4.13995   4.17931
 Alpha virt. eigenvalues --    4.19127   4.20779   4.21449   4.23239   4.26737
 Alpha virt. eigenvalues --    4.28826   4.30606   4.35646   4.36753   4.38448
 Alpha virt. eigenvalues --    4.42128   4.43418   4.46962   4.47884   4.53299
 Alpha virt. eigenvalues --    4.55530   4.58420   4.61199   4.66245   4.72179
 Alpha virt. eigenvalues --    4.73972   4.77234   4.80311   4.81993   4.84508
 Alpha virt. eigenvalues --    4.87238   4.90231   4.94352   4.99169   5.00218
 Alpha virt. eigenvalues --    5.03633   5.04610   5.06414   5.10824   5.11970
 Alpha virt. eigenvalues --    5.12132   5.14005   5.21864   5.25807   5.27738
 Alpha virt. eigenvalues --    5.29708   5.32056   5.34083   5.35573   5.38247
 Alpha virt. eigenvalues --    5.39556   5.40986   5.43333   5.48465   5.52018
 Alpha virt. eigenvalues --    5.56846   5.62500   5.70178   5.75250   5.85029
 Alpha virt. eigenvalues --    5.90484   5.94989   5.98171   6.00038   6.02977
 Alpha virt. eigenvalues --    6.08470   6.11049   6.12824   6.22117   6.30636
 Alpha virt. eigenvalues --    6.40265   6.44727   6.47070   6.69070   6.73055
 Alpha virt. eigenvalues --    6.75690   6.81263   6.97327   7.04942   7.08505
 Alpha virt. eigenvalues --    7.12946   7.44771   7.46466   7.63114   7.68377
 Alpha virt. eigenvalues --    9.86297  10.86664  11.37022  13.22678  13.52737
 Alpha virt. eigenvalues --   14.44831
  Beta  occ. eigenvalues --  -19.79077 -19.76934 -10.66033 -10.63346 -10.62105
  Beta  occ. eigenvalues --  -10.61669  -1.27707  -0.98206  -0.91667  -0.78621
  Beta  occ. eigenvalues --   -0.76701  -0.64976  -0.58024  -0.55711  -0.55121
  Beta  occ. eigenvalues --   -0.54821  -0.50773  -0.47006  -0.45514  -0.43817
  Beta  occ. eigenvalues --   -0.42478  -0.36135  -0.34902  -0.30268
  Beta virt. eigenvalues --   -0.05582   0.07510   0.08316   0.10313   0.11751
  Beta virt. eigenvalues --    0.12619   0.14614   0.15607   0.16238   0.16966
  Beta virt. eigenvalues --    0.18916   0.22180   0.23939   0.28357   0.29817
  Beta virt. eigenvalues --    0.30521   0.31527   0.32870   0.35743   0.37250
  Beta virt. eigenvalues --    0.38038   0.42969   0.44622   0.46154   0.46885
  Beta virt. eigenvalues --    0.48725   0.50608   0.51716   0.52463   0.52713
  Beta virt. eigenvalues --    0.53686   0.53888   0.54896   0.57151   0.57791
  Beta virt. eigenvalues --    0.58255   0.59825   0.62893   0.63904   0.66949
  Beta virt. eigenvalues --    0.69254   0.69744   0.71787   0.74126   0.76314
  Beta virt. eigenvalues --    0.77781   0.80544   0.82269   0.88512   0.90034
  Beta virt. eigenvalues --    0.93042   0.94451   0.95465   0.95738   0.97863
  Beta virt. eigenvalues --    0.99127   1.01388   1.04815   1.05702   1.05905
  Beta virt. eigenvalues --    1.08213   1.10754   1.12236   1.13454   1.14570
  Beta virt. eigenvalues --    1.16187   1.17789   1.19053   1.21471   1.22374
  Beta virt. eigenvalues --    1.24456   1.26831   1.28159   1.30084   1.34958
  Beta virt. eigenvalues --    1.35477   1.36794   1.38028   1.39128   1.41374
  Beta virt. eigenvalues --    1.43082   1.44580   1.48309   1.49566   1.50773
  Beta virt. eigenvalues --    1.53181   1.55307   1.56796   1.59149   1.61627
  Beta virt. eigenvalues --    1.63261   1.71882   1.73515   1.78693   1.81756
  Beta virt. eigenvalues --    1.84774   1.89853   1.98758   2.05563   2.05886
  Beta virt. eigenvalues --    2.14498   2.16838   2.22896   2.23917   2.29814
  Beta virt. eigenvalues --    2.32479   2.35050   2.37627   2.42021   2.43341
  Beta virt. eigenvalues --    2.46909   2.49825   2.50175   2.52504   2.54233
  Beta virt. eigenvalues --    2.58108   2.59375   2.65961   2.69092   2.71355
  Beta virt. eigenvalues --    2.72304   2.79431   2.81343   2.84106   2.85670
  Beta virt. eigenvalues --    2.89616   2.90654   2.91949   2.92394   2.94033
  Beta virt. eigenvalues --    2.94583   2.97392   2.99880   3.01214   3.02519
  Beta virt. eigenvalues --    3.04543   3.04976   3.07943   3.08338   3.10900
  Beta virt. eigenvalues --    3.12852   3.14036   3.15018   3.16836   3.17035
  Beta virt. eigenvalues --    3.18026   3.19115   3.22462   3.23438   3.25593
  Beta virt. eigenvalues --    3.28005   3.29413   3.33068   3.36653   3.37387
  Beta virt. eigenvalues --    3.40397   3.42575   3.44116   3.46580   3.47658
  Beta virt. eigenvalues --    3.50153   3.51303   3.52310   3.53754   3.55761
  Beta virt. eigenvalues --    3.56570   3.57234   3.60460   3.62904   3.65406
  Beta virt. eigenvalues --    3.66902   3.71005   3.74083   3.78652   3.81114
  Beta virt. eigenvalues --    3.81879   3.84248   3.84930   3.86031   3.89287
  Beta virt. eigenvalues --    3.89945   3.94276   3.95219   3.96524   3.97464
  Beta virt. eigenvalues --    3.98849   4.01040   4.05401   4.05919   4.07121
  Beta virt. eigenvalues --    4.09605   4.11939   4.12339   4.13504   4.14025
  Beta virt. eigenvalues --    4.18028   4.19109   4.20865   4.21513   4.23406
  Beta virt. eigenvalues --    4.27242   4.28973   4.30695   4.35680   4.36898
  Beta virt. eigenvalues --    4.38702   4.42474   4.43914   4.47190   4.48269
  Beta virt. eigenvalues --    4.53675   4.55924   4.59089   4.61878   4.66862
  Beta virt. eigenvalues --    4.72743   4.74471   4.77938   4.80474   4.82300
  Beta virt. eigenvalues --    4.84724   4.87626   4.90535   4.94520   4.99458
  Beta virt. eigenvalues --    5.00510   5.04076   5.05120   5.06637   5.11029
  Beta virt. eigenvalues --    5.12554   5.12690   5.14415   5.22706   5.26441
  Beta virt. eigenvalues --    5.28511   5.30281   5.32451   5.34382   5.35841
  Beta virt. eigenvalues --    5.38739   5.39825   5.41143   5.43577   5.48843
  Beta virt. eigenvalues --    5.52237   5.57329   5.62686   5.71047   5.75964
  Beta virt. eigenvalues --    5.85977   5.90988   5.95190   5.98573   6.00365
  Beta virt. eigenvalues --    6.04864   6.09281   6.11390   6.13385   6.23641
  Beta virt. eigenvalues --    6.31205   6.41977   6.45193   6.47221   6.70013
  Beta virt. eigenvalues --    6.76877   6.78082   6.82955   6.99411   7.07401
  Beta virt. eigenvalues --    7.09457   7.15143   7.46630   7.46651   7.64870
  Beta virt. eigenvalues --    7.69527   9.87634  10.87545  11.37000  13.23426
  Beta virt. eigenvalues --   13.52737  14.45207
          Condensed to atoms (all electrons):
               1          2          3          4          5          6
     1  C    5.050994   0.409562   0.405316  -0.003283   0.000266   0.000341
     2  H    0.409562   0.540310  -0.027526   0.000076  -0.000157   0.000019
     3  H    0.405316  -0.027526   0.561404   0.000140  -0.000844  -0.000060
     4  C   -0.003283   0.000076   0.000140   4.622490   0.390371   0.396869
     5  H    0.000266  -0.000157  -0.000844   0.390371   0.680362  -0.036473
     6  H    0.000341   0.000019  -0.000060   0.396869  -0.036473   0.588205
     7  H   -0.000972   0.000024   0.000011   0.413365  -0.052641  -0.026553
     8  O   -0.003450   0.000581   0.000356   0.297882  -0.051057  -0.025335
     9  O   -0.068505  -0.000270  -0.000395  -0.048273  -0.001581   0.006798
    10  H    0.247821  -0.011944  -0.008818   0.000859   0.004859  -0.000882
    11  C    0.367722  -0.033857  -0.047712  -0.002334   0.001147   0.000268
    12  C   -0.063115   0.004626  -0.000356  -0.005245  -0.004354   0.001371
    13  H   -0.033509  -0.005160   0.005318  -0.000064   0.000177  -0.000069
    14  H   -0.004828  -0.000026   0.003525  -0.000655   0.000393   0.000044
    15  H    0.005936  -0.000279   0.000023   0.000175   0.000053  -0.000030
               7          8          9         10         11         12
     1  C   -0.000972  -0.003450  -0.068505   0.247821   0.367722  -0.063115
     2  H    0.000024   0.000581  -0.000270  -0.011944  -0.033857   0.004626
     3  H    0.000011   0.000356  -0.000395  -0.008818  -0.047712  -0.000356
     4  C    0.413365   0.297882  -0.048273   0.000859  -0.002334  -0.005245
     5  H   -0.052641  -0.051057  -0.001581   0.004859   0.001147  -0.004354
     6  H   -0.026553  -0.025335   0.006798  -0.000882   0.000268   0.001371
     7  H    0.599492  -0.038557   0.005685   0.000532   0.000886   0.000259
     8  O   -0.038557   7.928425   0.070185  -0.026263   0.007199   0.002684
     9  O    0.005685   0.070185   8.096397   0.163130  -0.013403   0.000733
    10  H    0.000532  -0.026263   0.163130   0.439830  -0.007580  -0.006825
    11  C    0.000886   0.007199  -0.013403  -0.007580   4.892723   0.571848
    12  C    0.000259   0.002684   0.000733  -0.006825   0.571848   5.015343
    13  H   -0.000004   0.000651   0.000690  -0.000705   0.408785  -0.040646
    14  H    0.000032   0.000020  -0.000052   0.000111  -0.050729   0.408541
    15  H   -0.000008  -0.000063   0.000017  -0.000098  -0.044130   0.421030
              13         14         15
     1  C   -0.033509  -0.004828   0.005936
     2  H   -0.005160  -0.000026  -0.000279
     3  H    0.005318   0.003525   0.000023
     4  C   -0.000064  -0.000655   0.000175
     5  H    0.000177   0.000393   0.000053
     6  H   -0.000069   0.000044  -0.000030
     7  H   -0.000004   0.000032  -0.000008
     8  O    0.000651   0.000020  -0.000063
     9  O    0.000690  -0.000052   0.000017
    10  H   -0.000705   0.000111  -0.000098
    11  C    0.408785  -0.050729  -0.044130
    12  C   -0.040646   0.408541   0.421030
    13  H    0.522639   0.006012  -0.006944
    14  H    0.006012   0.544727  -0.033865
    15  H   -0.006944  -0.033865   0.526984
          Atomic-Atomic Spin Densities.
               1          2          3          4          5          6
     1  C    0.486645   0.001020   0.002309   0.002400  -0.006219   0.000036
     2  H    0.001020  -0.022302   0.002242  -0.000093   0.000226  -0.000003
     3  H    0.002309   0.002242  -0.020253  -0.000263   0.000935   0.000002
     4  C    0.002400  -0.000093  -0.000263  -0.009275   0.001230   0.001022
     5  H   -0.006219   0.000226   0.000935   0.001230   0.005553  -0.000396
     6  H    0.000036  -0.000003   0.000002   0.001022  -0.000396  -0.002051
     7  H    0.000999  -0.000030  -0.000082  -0.000211  -0.001529   0.000257
     8  O    0.013971  -0.000495  -0.000552   0.001942  -0.002112   0.000331
     9  O   -0.068175   0.003038   0.002481  -0.003239   0.005077  -0.000203
    10  H    0.048392   0.002845   0.001767   0.002471  -0.004653   0.000130
    11  C   -0.015471   0.001520   0.001534  -0.001473   0.001495  -0.000208
    12  C   -0.017319  -0.000682  -0.000707  -0.003345   0.005374   0.000051
    13  H   -0.001445   0.000167   0.000005  -0.000021   0.000012   0.000008
    14  H    0.000120  -0.000059  -0.000232   0.000060  -0.000256  -0.000003
    15  H   -0.000113   0.000041   0.000031  -0.000068   0.000150   0.000005
               7          8          9         10         11         12
     1  C    0.000999   0.013971  -0.068175   0.048392  -0.015471  -0.017319
     2  H   -0.000030  -0.000495   0.003038   0.002845   0.001520  -0.000682
     3  H   -0.000082  -0.000552   0.002481   0.001767   0.001534  -0.000707
     4  C   -0.000211   0.001942  -0.003239   0.002471  -0.001473  -0.003345
     5  H   -0.001529  -0.002112   0.005077  -0.004653   0.001495   0.005374
     6  H    0.000257   0.000331  -0.000203   0.000130  -0.000208   0.000051
     7  H    0.002814  -0.000879   0.000101   0.001415  -0.000316  -0.000389
     8  O   -0.000879   0.115594  -0.061193   0.011290  -0.003332  -0.004950
     9  O    0.000101  -0.061193   0.627190  -0.048178   0.008376   0.002529
    10  H    0.001415   0.011290  -0.048178  -0.103623   0.007495  -0.000456
    11  C   -0.000316  -0.003332   0.008376   0.007495  -0.254667   0.003954
    12  C   -0.000389  -0.004950   0.002529  -0.000456   0.003954   0.409793
    13  H   -0.000000  -0.000061   0.000030  -0.000250  -0.002373  -0.000961
    14  H    0.000015   0.000093  -0.000079   0.000070   0.000341   0.004257
    15  H   -0.000007  -0.000108   0.000035  -0.000027  -0.000875   0.004057
              13         14         15
     1  C   -0.001445   0.000120  -0.000113
     2  H    0.000167  -0.000059   0.000041
     3  H    0.000005  -0.000232   0.000031
     4  C   -0.000021   0.000060  -0.000068
     5  H    0.000012  -0.000256   0.000150
     6  H    0.000008  -0.000003   0.000005
     7  H   -0.000000   0.000015  -0.000007
     8  O   -0.000061   0.000093  -0.000108
     9  O    0.000030  -0.000079   0.000035
    10  H   -0.000250   0.000070  -0.000027
    11  C   -0.002373   0.000341  -0.000875
    12  C   -0.000961   0.004257   0.004057
    13  H    0.013335  -0.000059   0.000283
    14  H   -0.000059  -0.022181   0.002511
    15  H    0.000283   0.002511  -0.023370
 Mulliken charges and spin densities:
               1          2
     1  C   -0.310294   0.447150
     2  H    0.124021  -0.012565
     3  H    0.109619  -0.010785
     4  C   -0.062372  -0.008862
     5  H    0.069481   0.004889
     6  H    0.095488  -0.001023
     7  H    0.098449   0.002157
     8  O   -0.163259   0.069540
     9  O   -0.211156   0.467792
    10  H    0.205974  -0.081312
    11  C   -0.050833  -0.254000
    12  C   -0.305894   0.401207
    13  H    0.142828   0.008671
    14  H    0.126751  -0.015402
    15  H    0.131199  -0.017456
 Sum of Mulliken charges =  -0.00000   1.00000
 Mulliken charges and spin densities with hydrogens summed into heavy atoms:
               1          2
     1  C   -0.076654   0.423800
     4  C    0.201044  -0.002839
     8  O   -0.163259   0.069540
     9  O   -0.005182   0.386480
    11  C    0.091995  -0.245329
    12  C   -0.047944   0.368349
 APT charges:
               1
     1  C    0.416910
     2  H   -0.044291
     3  H   -0.038708
     4  C    0.406604
     5  H   -0.026886
     6  H   -0.001493
     7  H   -0.031620
     8  O   -0.316769
     9  O    0.097746
    10  H   -0.382922
    11  C   -0.130409
    12  C   -0.045140
    13  H    0.027542
    14  H    0.017291
    15  H    0.052143
 Sum of APT charges =  -0.00000
 APT charges with hydrogens summed into heavy atoms:
               1
     1  C    0.333911
     4  C    0.346606
     8  O   -0.316769
     9  O   -0.285176
    11  C   -0.102867
    12  C    0.024294
 Electronic spatial extent (au):  <R**2>=            732.5180
 Charge=             -0.0000 electrons
 Dipole moment (field-independent basis, Debye):
    X=             -1.2192    Y=              1.4490    Z=             -1.1425  Tot=              2.2117
 Quadrupole moment (field-independent basis, Debye-Ang):
   XX=            -39.4695   YY=            -35.7855   ZZ=            -37.2182
   XY=              3.5016   XZ=             -2.0258   YZ=             -0.1771
 Traceless Quadrupole moment (field-independent basis, Debye-Ang):
   XX=             -1.9784   YY=              1.7056   ZZ=              0.2729
   XY=              3.5016   XZ=             -2.0258   YZ=             -0.1771
 Octapole moment (field-independent basis, Debye-Ang**2):
  XXX=             23.3375  YYY=             -0.8826  ZZZ=              1.7277  XYY=             -0.0150
  XXY=              5.0585  XXZ=             -0.6508  XZZ=             -0.0610  YZZ=             -0.4475
  YYZ=              1.5709  XYZ=             -0.3328
 Hexadecapole moment (field-independent basis, Debye-Ang**3):
 XXXX=           -609.7172 YYYY=           -268.6819 ZZZZ=            -96.9277 XXXY=              3.8403
 XXXZ=             -5.8100 YYYX=              3.2528 YYYZ=              3.6173 ZZZX=              1.9466
 ZZZY=             -1.2918 XXYY=           -137.8710 XXZZ=           -111.6378 YYZZ=            -62.6435
 XXYZ=             -0.3064 YYXZ=             -0.6483 ZZXY=             -1.8409
 N-N= 2.427939211993D+02 E-N=-1.205905755618D+03  KE= 3.063343722753D+02
  Exact polarizability:  96.954  -3.650  74.333   1.861   0.660  51.468
 Approx polarizability:  84.497  -7.663  84.295   3.840   0.104  61.296
                          Isotropic Fermi Contact Couplings
        Atom                 a.u.       MegaHertz       Gauss      10(-4) cm-1
     1  C(13)              0.06369      71.59686      25.54754      23.88214
     2  H(1)              -0.00336     -15.01205      -5.35667      -5.00748
     3  H(1)              -0.00298     -13.34070      -4.76029      -4.44998
     4  C(13)             -0.00535      -6.01621      -2.14673      -2.00679
     5  H(1)               0.00241      10.75132       3.83634       3.58625
     6  H(1)              -0.00019      -0.83789      -0.29898      -0.27949
     7  H(1)               0.00097       4.34098       1.54897       1.44799
     8  O(17)              0.02235     -13.54562      -4.83341      -4.51833
     9  O(17)              0.03202     -19.40785      -6.92520      -6.47376
    10  H(1)              -0.02115     -94.52242     -33.72795     -31.52929
    11  C(13)             -0.01037     -11.65324      -4.15816      -3.88710
    12  C(13)              0.00725       8.15389       2.90951       2.71985
    13  H(1)               0.00066       2.95170       1.05324       0.98458
    14  H(1)              -0.00317     -14.17980      -5.05970      -4.72987
    15  H(1)              -0.00323     -14.43605      -5.15114      -4.81535
 --------------------------------------------------------
       Center         ----  Spin Dipole Couplings  ----
                      3XX-RR        3YY-RR        3ZZ-RR
 --------------------------------------------------------
     1   Atom        0.475189     -0.241437     -0.233752
     2   Atom        0.003444      0.020909     -0.024353
     3   Atom       -0.000479     -0.026895      0.027374
     4   Atom       -0.004836      0.007382     -0.002546
     5   Atom       -0.002252      0.003516     -0.001265
     6   Atom       -0.001562      0.006335     -0.004773
     7   Atom       -0.000031      0.001671     -0.001639
     8   Atom        0.637121     -0.338285     -0.298836
     9   Atom        1.802691     -0.924098     -0.878593
    10   Atom        0.176994     -0.092388     -0.084606
    11   Atom       -0.073085      0.044217      0.028868
    12   Atom        0.254598     -0.111276     -0.143321
    13   Atom       -0.001874      0.002374     -0.000500
    14   Atom       -0.000855     -0.012921      0.013776
    15   Atom        0.002783      0.002895     -0.005678
 --------------------------------------------------------
                        XY            XZ            YZ
 --------------------------------------------------------
     1   Atom       -0.014667      0.082837     -0.003431
     2   Atom        0.010731      0.000686     -0.018076
     3   Atom       -0.000537      0.006235     -0.008182
     4   Atom        0.004236     -0.002087     -0.006035
     5   Atom       -0.000460     -0.001021     -0.006648
     6   Atom        0.002825      0.000001     -0.001620
     7   Atom        0.005608     -0.004121     -0.004431
     8   Atom       -0.051482      0.211535     -0.037598
     9   Atom       -0.350159      0.455140     -0.060934
    10   Atom        0.011416      0.059991      0.004666
    11   Atom       -0.041956     -0.018252      0.000203
    12   Atom        0.118342      0.047468      0.017276
    13   Atom       -0.003786     -0.003668      0.001802
    14   Atom        0.003077     -0.001428     -0.008659
    15   Atom       -0.004298     -0.005424      0.018254
 --------------------------------------------------------


 ---------------------------------------------------------------------------------
              Anisotropic Spin Dipole Couplings in Principal Axis System
 ---------------------------------------------------------------------------------

       Atom             a.u.   MegaHertz   Gauss  10(-4) cm-1        Axes

              Baa    -0.2444   -32.799   -11.703   -10.941 -0.0851  0.5427  0.8356
     1 C(13)  Bbb    -0.2406   -32.290   -11.522   -10.771  0.0794  0.8396 -0.5373
              Bcc     0.4850    65.089    23.225    21.711  0.9932 -0.0206  0.1146
 
              Baa    -0.0312   -16.657    -5.944    -5.556 -0.1261  0.3481  0.9289
     2 H(1)   Bbb     0.0004     0.194     0.069     0.065  0.9309 -0.2820  0.2321
              Bcc     0.0309    16.463     5.874     5.491  0.3428  0.8940 -0.2885
 
              Baa    -0.0281   -14.997    -5.351    -5.002 -0.0141  0.9890  0.1474
     3 H(1)   Bbb    -0.0018    -0.939    -0.335    -0.313  0.9794  0.0433 -0.1974
              Bcc     0.0299    15.935     5.686     5.315  0.2016 -0.1416  0.9692
 
              Baa    -0.0062    -0.832    -0.297    -0.278  0.9570 -0.2089  0.2015
     4 C(13)  Bbb    -0.0054    -0.723    -0.258    -0.241 -0.0890  0.4495  0.8888
              Bcc     0.0116     1.555     0.555     0.519  0.2762  0.8685 -0.4116
 
              Baa    -0.0062    -3.330    -1.188    -1.111  0.2659  0.5513  0.7908
     5 H(1)   Bbb    -0.0020    -1.042    -0.372    -0.348  0.9638 -0.1694 -0.2060
              Bcc     0.0082     4.372     1.560     1.458  0.0204  0.8170 -0.5763
 
              Baa    -0.0051    -2.701    -0.964    -0.901 -0.1404  0.1734  0.9748
     6 H(1)   Bbb    -0.0024    -1.267    -0.452    -0.423  0.9445 -0.2720  0.1844
              Bcc     0.0074     3.968     1.416     1.324  0.2971  0.9465 -0.1255
 
              Baa    -0.0051    -2.703    -0.964    -0.901  0.7474 -0.2069  0.6314
     7 H(1)   Bbb    -0.0046    -2.480    -0.885    -0.827 -0.3221  0.7183  0.6167
              Bcc     0.0097     5.183     1.849     1.729  0.5811  0.6642 -0.4702
 
              Baa    -0.3689    26.695     9.525     8.904 -0.1158  0.6865  0.7179
     8 O(17)  Bbb    -0.3171    22.946     8.188     7.654  0.1861  0.7249 -0.6632
              Bcc     0.6860   -49.640   -17.713   -16.558  0.9757 -0.0568  0.2117
 
              Baa    -0.9691    70.122    25.021    23.390  0.0881  0.9732  0.2122
     9 O(17)  Bbb    -0.9531    68.968    24.610    23.005 -0.1838 -0.1935  0.9637
              Bcc     1.9222  -139.091   -49.631   -46.396  0.9790 -0.1239  0.1618
 
              Baa    -0.0985   -52.560   -18.755   -17.532 -0.1850 -0.3538  0.9169
    10 H(1)   Bbb    -0.0921   -49.144   -17.536   -16.393 -0.1148  0.9343  0.3374
              Bcc     0.1906   101.704    36.291    33.925  0.9760  0.0429  0.2135
 
              Baa    -0.0891   -11.956    -4.266    -3.988  0.9438  0.2968  0.1455
    11 C(13)  Bbb     0.0302     4.056     1.447     1.353 -0.0746 -0.2377  0.9685
              Bcc     0.0589     7.900     2.819     2.635 -0.3220  0.9249  0.2022
 
              Baa    -0.1511   -20.276    -7.235    -6.763  0.0602 -0.5424  0.8379
    12 C(13)  Bbb    -0.1442   -19.355    -6.906    -6.456 -0.2983  0.7913  0.5337
              Bcc     0.2953    39.631    14.141    13.219  0.9526  0.2821  0.1142
 
              Baa    -0.0054    -2.901    -1.035    -0.968  0.8167  0.2794  0.5049
    13 H(1)   Bbb    -0.0010    -0.515    -0.184    -0.172 -0.2268 -0.6490  0.7262
              Bcc     0.0064     3.416     1.219     1.139 -0.5306  0.7076  0.4667
 
              Baa    -0.0159    -8.493    -3.031    -2.833 -0.1683  0.9485  0.2685
    14 H(1)   Bbb    -0.0007    -0.379    -0.135    -0.127  0.9773  0.1250  0.1711
              Bcc     0.0166     8.873     3.166     2.960 -0.1287 -0.2912  0.9480
 
              Baa    -0.0203   -10.808    -3.856    -3.605  0.0723 -0.6092  0.7897
    15 H(1)   Bbb     0.0003     0.134     0.048     0.045  0.9280  0.3312  0.1706
              Bcc     0.0200    10.673     3.809     3.560 -0.3654  0.7205  0.5893
 

 ---------------------------------------------------------------------------------

 Calling FoFJK, ICntrl=  10100127 FMM=F ISym2X=0 I1Cent= 0 IOpClX= 1 NMat=1 NMatS=1 NMatT=0.
 -------------------------------------------------------------------
 Center     Atomic                   Forces (Hartrees/Bohr)
 Number     Number              X              Y              Z
 -------------------------------------------------------------------
      1        6           0.003191643   -0.000986692    0.000323423
      2        1          -0.000588357    0.000427127   -0.000249915
      3        1          -0.000610590   -0.000311808    0.000569962
      4        6           0.001227117    0.003606400   -0.005164846
      5        1           0.001535016    0.000665617    0.000612619
      6        1           0.000004736   -0.000530803   -0.000079132
      7        1          -0.000506426    0.000459776    0.000102832
      8        8           0.000582709    0.009355099    0.010214496
      9        8           0.002720204   -0.012132110   -0.004722328
     10        1          -0.006641342   -0.000363159   -0.001152219
     11        6           0.000214680   -0.003819251    0.000978304
     12        6          -0.001248302    0.004014692   -0.001193286
     13        1          -0.000017585    0.000202884   -0.000825523
     14        1          -0.000045840   -0.000031223    0.001176059
     15        1           0.000182337   -0.000556549   -0.000590444
 -------------------------------------------------------------------
 Cartesian Forces:  Max     0.012132110 RMS     0.003366232
 FormGI is forming the generalized inverse of G from B-inverse, IUseBI=4.

 GradGradGradGradGradGradGradGradGradGradGradGradGradGradGradGradGradGrad
 Berny optimization.
 Internal  Forces:  Max     0.014894333 RMS     0.002779772
 Search for a saddle point.
 Step number   1 out of a maximum of  100 on scan point     1 out of    37
 All quantities printed in internal units (Hartrees-Bohrs-Radians)
 Swapping is turned off.
 Second derivative matrix not updated -- analytic derivatives used.
 ITU=  0
     Eigenvalues ---   -0.08682   0.00548   0.00612   0.02021   0.02155
     Eigenvalues ---    0.02793   0.03833   0.03892   0.04282   0.04758
     Eigenvalues ---    0.06992   0.08428   0.08478   0.10528   0.10984
     Eigenvalues ---    0.11056   0.11585   0.12645   0.13558   0.14005
     Eigenvalues ---    0.16862   0.17500   0.18031   0.18425   0.24169
     Eigenvalues ---    0.29533   0.32931   0.33601   0.34083   0.34655
     Eigenvalues ---    0.34894   0.35221   0.35606   0.35761   0.36016
     Eigenvalues ---    0.36382   0.44547   0.601321000.000001000.00000
     Eigenvalues --- 1000.000001000.000001000.000001000.000001000.00000
     Eigenvalues --- 1000.000001000.000001000.000001000.000001000.00000
     Eigenvalues --- 1000.00000
 Eigenvectors required to have negative eigenvalues:
                          R10       R3        R9        R4        D3
   1                    0.73974  -0.58642  -0.15603   0.11736   0.11313
                          D2        A2        D4        D5        A3
   1                    0.10847   0.09385  -0.07448  -0.06982  -0.06224
 RFO step:  Lambda0=1.038073326D-04 Lambda=-1.17250109D-03.
 Linear search not attempted -- option 19 set.
 Iteration  1 RMS(Cart)=  0.05923025 RMS(Int)=  0.00068661
 Iteration  2 RMS(Cart)=  0.00111935 RMS(Int)=  0.00000776
 Iteration  3 RMS(Cart)=  0.00000095 RMS(Int)=  0.00000774
 Iteration  1 RMS(Cart)=  0.00000000 RMS(Int)=  0.00000000
 Variable       Old X    -DE/DX   Delta X   Delta X   Delta X     New X
                                 (Linear)    (Quad)   (Total)
    R1        2.05183  -0.00031   0.00000  -0.00134  -0.00134   2.05049
    R2        2.05309  -0.00054   0.00000  -0.00195  -0.00195   2.05113
    R3        2.47083  -0.00115   0.00000   0.01370   0.01370   2.48452
    R4        2.73768  -0.00016   0.00000  -0.00714  -0.00714   2.73054
    R5        2.06232  -0.00158   0.00000  -0.00370  -0.00370   2.05863
    R6        2.05597  -0.00051   0.00000  -0.00071  -0.00071   2.05526
    R7        2.05917  -0.00059   0.00000  -0.00244  -0.00244   2.05673
    R8        2.67694   0.00649   0.00000   0.01444   0.01444   2.69137
    R9        2.58073   0.01489   0.00000   0.04763   0.04763   2.62836
   R10        2.32684   0.00574   0.00000  -0.01455  -0.01455   2.31229
   R11        2.53013   0.00358   0.00000   0.00792   0.00792   2.53805
   R12        2.04885  -0.00085   0.00000  -0.00231  -0.00231   2.04654
   R13        2.04783  -0.00116   0.00000  -0.00342  -0.00342   2.04441
   R14        2.04216  -0.00083   0.00000  -0.00256  -0.00256   2.03960
    A1        1.98423  -0.00014   0.00000   0.00063   0.00062   1.98485
    A2        1.74436  -0.00018   0.00000  -0.00076  -0.00076   1.74360
    A3        2.03336  -0.00064   0.00000   0.00068   0.00067   2.03403
    A4        1.82474  -0.00004   0.00000  -0.00324  -0.00324   1.82151
    A5        2.02284  -0.00018   0.00000   0.00384   0.00384   2.02668
    A6        1.80359   0.00153   0.00000  -0.00333  -0.00332   1.80027
    A7        1.92074  -0.00038   0.00000  -0.00092  -0.00092   1.91982
    A8        1.92045  -0.00046   0.00000   0.00093   0.00090   1.92135
    A9        1.92120   0.00145   0.00000   0.00836   0.00835   1.92955
   A10        1.93138  -0.00028   0.00000  -0.00239  -0.00240   1.92898
   A11        1.84788  -0.00065   0.00000  -0.00895  -0.00895   1.83893
   A12        1.92110   0.00035   0.00000   0.00277   0.00275   1.92385
   A13        1.89281   0.00185   0.00000  -0.00578  -0.00578   1.88703
   A14        1.79761   0.00590   0.00000   0.00424   0.00424   1.80186
   A15        2.16844   0.00124   0.00000   0.00364   0.00364   2.17208
   A16        2.04093  -0.00055   0.00000   0.00015   0.00014   2.04107
   A17        2.07284  -0.00069   0.00000  -0.00390  -0.00391   2.06893
   A18        2.11293   0.00023   0.00000   0.00134   0.00134   2.11427
   A19        2.12239  -0.00002   0.00000  -0.00160  -0.00160   2.12079
   A20        2.04778  -0.00021   0.00000   0.00028   0.00028   2.04805
   A21        3.06852   0.00367   0.00000   0.01907   0.01907   3.08759
   A22        2.99662   0.00198   0.00000   0.04066   0.04066   3.03728
    D1       -0.27114  -0.00102   0.00000   0.00000   0.00000  -0.27114
    D2       -2.62307   0.00072   0.00000  -0.02504  -0.02504  -2.64811
    D3        0.56680   0.00057   0.00000  -0.02208  -0.02208   0.54472
    D4       -0.21744  -0.00056   0.00000  -0.01819  -0.01819  -0.23562
    D5        2.97244  -0.00070   0.00000  -0.01524  -0.01523   2.95721
    D6        1.76722   0.00028   0.00000  -0.02240  -0.02241   1.74482
    D7       -1.32609   0.00013   0.00000  -0.01945  -0.01945  -1.34553
    D8        1.07202   0.00029   0.00000   0.02793   0.02796   1.09998
    D9       -3.13578   0.00023   0.00000   0.02609   0.02608  -3.10970
   D10       -1.04780  -0.00030   0.00000   0.01951   0.01950  -1.02830
   D11       -1.58798  -0.00315   0.00000  -0.04554  -0.04554  -1.63352
   D12        0.04645  -0.00012   0.00000  -0.00117  -0.00117   0.04528
   D13       -3.10986  -0.00009   0.00000   0.00069   0.00069  -3.10917
   D14        3.13893   0.00003   0.00000  -0.00407  -0.00406   3.13487
   D15       -0.01737   0.00006   0.00000  -0.00221  -0.00221  -0.01958
         Item               Value     Threshold  Converged?
 Maximum Force            0.014894     0.000450     NO 
 RMS     Force            0.002804     0.000300     NO 
 Maximum Displacement     0.219731     0.001800     NO 
 RMS     Displacement     0.059643     0.001200     NO 
 Predicted change in Energy=-5.405250D-04
 GradGradGradGradGradGradGradGradGradGradGradGradGradGradGradGradGradGrad

                          Input orientation:                          
 ---------------------------------------------------------------------
 Center     Atomic      Atomic             Coordinates (Angstroms)
 Number     Number       Type             X           Y           Z
 ---------------------------------------------------------------------
      1          6           0       -1.228145   -1.175005   -0.423283
      2          1           0       -1.495175   -2.172799   -0.090889
      3          1           0       -1.338472   -1.026908   -1.492868
      4          6           0        1.736860    1.049548   -0.404653
      5          1           0        0.946332    1.117123   -1.151140
      6          1           0        1.850414    2.003991    0.104281
      7          1           0        2.672363    0.755092   -0.876552
      8          8           0        1.384623    0.118411    0.613825
      9          8           0        1.265172   -1.137811    0.028881
     10          1           0        0.072010   -1.213280   -0.231687
     11          6           0       -1.652186   -0.079222    0.417731
     12          6           0       -1.913973    1.161366   -0.025282
     13          1           0       -1.715169   -0.272860    1.481399
     14          1           0       -1.857545    1.402896   -1.078318
     15          1           0       -2.199757    1.953060    0.650332
 ---------------------------------------------------------------------
                    Distance matrix (angstroms):
                    1          2          3          4          5
     1  C    0.000000
     2  H    1.085073   0.000000
     3  H    1.085412   1.817462   0.000000
     4  C    3.706783   4.574715   3.866982   0.000000
     5  H    3.242217   4.231863   3.151821   1.089378   0.000000
     6  H    4.456665   5.355056   4.680409   1.087598   1.783251
     7  H    4.375464   5.153463   4.431948   1.088374   1.784838
     8  O    3.094361   3.746931   3.628382   1.424214   2.074759
     9  O    2.534258   2.950433   3.017778   2.279250   2.564924
    10  H    1.314753   1.842978   1.901255   2.814611   2.653415
    11  C    1.444941   2.160188   2.155671   3.665525   3.262651
    12  C    2.467264   3.361005   2.696953   3.672194   3.074225
    13  H    2.163069   2.475935   3.091400   4.149995   3.993232
    14  H    2.733274   3.727186   2.518975   3.674021   2.819343
    15  H    3.446951   4.250712   3.770322   4.174480   3.720479
                    6          7          8          9         10
     6  H    0.000000
     7  H    1.788122   0.000000
     8  O    2.007986   2.069991   0.000000
     9  O    3.196734   2.526475   1.390871   0.000000
    10  H    3.691399   3.324482   2.052132   1.223612   0.000000
    11  C    4.087326   4.590531   3.049544   3.127746   2.163489
    12  C    3.859717   4.682328   3.518089   3.923788   3.102528
    13  H    4.449032   5.085966   3.242605   3.426424   2.648219
    14  H    3.938124   4.580439   3.876197   4.175217   3.359218
    15  H    4.087132   5.244431   4.026791   4.684594   3.995572
                   11         12         13         14         15
    11  C    0.000000
    12  C    1.343076   0.000000
    13  H    1.082983   2.089645   0.000000
    14  H    2.115894   1.081853   3.062773   0.000000
    15  H    2.117571   1.079308   2.424916   1.846083   0.000000
 Symmetry turned off by external request.
 Stoichiometry    C4H9O2(2)
 Framework group  C1[X(C4H9O2)]
 Deg. of freedom    39
 Full point group                 C1      NOp   1
 Rotational constants (GHZ):           4.7488245           2.1543460           1.6837057
 Standard basis: CC-pVTZ (5D, 7F)
   306 basis functions,   465 primitive gaussians,   345 cartesian basis functions
    25 alpha electrons       24 beta electrons
       nuclear repulsion energy       240.6078358049 Hartrees.
 NAtoms=   15 NActive=   15 NUniq=   15 SFac= 1.00D+00 NAtFMM=   60 NAOKFM=F Big=F
 Integral buffers will be    131072 words long.
 Raffenetti 2 integral format.
 Two-electron integral symmetry is turned off.
 Nuclear repulsion after empirical dispersion term =      240.6002340094 Hartrees.
 One-electron integrals computed using PRISM.
 NBasis=   306 RedAO= T EigKep=  4.17D-04  NBF=   306
 NBsUse=   306 1.00D-06 EigRej= -1.00D+00 NBFU=   306
 Initial guess from the checkpoint file:  "/localscratch/347858/Gau-62828.chk"
 B after Tr=    -0.008150    0.005061   -0.006044
         Rot=    0.999998    0.000165   -0.001439   -0.001418 Ang=   0.23 deg.
 Initial guess <Sx>= 0.0000 <Sy>= 0.0000 <Sz>= 0.5000 <S**2>= 0.8130 S= 0.5310
 ExpMin= 1.03D-01 ExpMax= 1.53D+04 ExpMxC= 5.22D+02 IAcc=3 IRadAn=         5 AccDes= 0.00D+00
 Harris functional with IExCor=  419 and IRadAn=       5 diagonalized for initial guess.
 HarFok:  IExCor=  419 AccDes= 0.00D+00 IRadAn=         5 IDoV= 1 UseB2=F ITyADJ=14
 ICtDFT=  3500011 ScaDFX=  1.000000  1.000000  1.000000  1.000000
 FoFCou: FMM=F IPFlag=           0 FMFlag=      100000 FMFlg1=           0
         NFxFlg=           0 DoJE=T BraDBF=F KetDBF=T FulRan=T
         wScrn=  0.000000 ICntrl=       500 IOpCl=  0 I1Cent=   200000004 NGrid=           0
         NMat0=    1 NMatS0=      1 NMatT0=    0 NMatD0=    1 NMtDS0=    0 NMtDT0=    0
 Symmetry not used in FoFCou.
 Requested convergence on RMS density matrix=1.00D-08 within 500 cycles.
 Requested convergence on MAX density matrix=1.00D-06.
 Requested convergence on             energy=1.00D-06.
 No special actions if energy rises.
 Integral accuracy reduced to 1.0D-05 until final iterations.
 Initial convergence to 1.0D-05 achieved.  Increase integral accuracy.
 SCF Done:  E(UB2PLYPD3) =  -307.580038484     A.U. after   16 cycles
            NFock= 16  Conv=0.67D-08     -V/T= 2.0042
 <Sx>= 0.0000 <Sy>= 0.0000 <Sz>= 0.5000 <S**2>= 0.8174 S= 0.5331
 <L.S>=  0.00000000000    
 Annihilation of the first spin contaminant:
 S**2 before annihilation     0.8174,   after     0.7520
 DoSCS=T DFT=T ScalE2(SS,OS)=  0.270000  0.270000
 ExpMin= 1.03D-01 ExpMax= 1.53D+04 ExpMxC= 5.22D+02 IAcc=3 IRadAn=         5 AccDes= 0.00D+00
 HarFok:  IExCor=  205 AccDes= 0.00D+00 IRadAn=         5 IDoV=-2 UseB2=F ITyADJ=14
 ICtDFT= 12500011 ScaDFX=  1.000000  1.000000  1.000000  1.000000
 Range of M.O.s used for correlation:     7   306
 NBasis=   306 NAE=    25 NBE=    24 NFC=     6 NFV=     0
 NROrb=    300 NOA=    19 NOB=    18 NVA=   281 NVB=   282

 **** Warning!!: The largest alpha MO coefficient is  0.11954702D+02


 **** Warning!!: The largest beta MO coefficient is  0.11948134D+02

 DoSCS=T DFT=T ScalE2(SS,OS)=  0.270000  0.270000
 Disk-based method using ON**2 memory for 19 occupieds at a time.
 Estimated scratch disk usage=  1430070548 words.
 Actual    scratch disk usage=  1310551316 words.
 JobTyp=2 Pass  1:  I=   7 to  25 NPSUse= 40 ParTrn=T ParDer=T DoDerP=T.
 (rs|ai) integrals will be sorted in core.
 Actual    scratch disk usage=  1310551316 words.
 JobTyp=3 Pass  1:  I=   7 to  24 NPSUse= 40 ParTrn=T ParDer=T DoDerP=T.
 (rs|ai) integrals will be sorted in core.
 Spin components of T(2) and E(2):
     alpha-alpha T2 =       0.6515081208D-01 E2=     -0.4697046937D-01
     alpha-beta  T2 =       0.4004096624D+00 E2=     -0.2904975908D+00
     beta-beta   T2 =       0.7373808975D-01 E2=     -0.4652047074D-01
 (S**2,0)=  0.81737D+00           (S**2,1)=  0.75758D+00
 Scaling Projection term by:   0.270000
 E(PUHF)=      -0.30759053398D+03        E(PMP2)=      -0.30796562508D+03
 E2(B2PLYPD3) =    -0.3839885309D+00 E(B2PLYPD3) =    -0.30796402701500D+03
          IDoAtm=111111111111111
          Differentiating once with respect to electric field.
                with respect to dipole field.
          Differentiating once with respect to nuclear coordinates.
 Keep R1 and R2 ints in memory in canonical form, NReq=2252583484.
          There are     1 degrees of freedom in the 1st order CPHF.  IDoFFX=0 NUNeed=     1.
 LinEq1:  Iter=  0 NonCon=     1 RMS=1.08D-03 Max=6.53D-02 NDo=     1
 AX will form     1 AO Fock derivatives at one time.
 LinEq1:  Iter=  1 NonCon=     1 RMS=3.89D-04 Max=1.50D-02 NDo=     1
 LinEq1:  Iter=  2 NonCon=     1 RMS=2.54D-04 Max=9.44D-03 NDo=     1
 LinEq1:  Iter=  3 NonCon=     1 RMS=1.32D-04 Max=5.14D-03 NDo=     1
 LinEq1:  Iter=  4 NonCon=     1 RMS=8.87D-05 Max=3.94D-03 NDo=     1
 LinEq1:  Iter=  5 NonCon=     1 RMS=6.11D-05 Max=2.87D-03 NDo=     1
 LinEq1:  Iter=  6 NonCon=     1 RMS=3.19D-05 Max=9.34D-04 NDo=     1
 LinEq1:  Iter=  7 NonCon=     1 RMS=9.20D-06 Max=3.24D-04 NDo=     1
 LinEq1:  Iter=  8 NonCon=     1 RMS=4.32D-06 Max=2.14D-04 NDo=     1
 LinEq1:  Iter=  9 NonCon=     1 RMS=2.14D-06 Max=5.48D-05 NDo=     1
 LinEq1:  Iter= 10 NonCon=     1 RMS=9.76D-07 Max=1.92D-05 NDo=     1
 LinEq1:  Iter= 11 NonCon=     1 RMS=5.02D-07 Max=1.37D-05 NDo=     1
 LinEq1:  Iter= 12 NonCon=     1 RMS=2.50D-07 Max=5.72D-06 NDo=     1
 LinEq1:  Iter= 13 NonCon=     1 RMS=9.54D-08 Max=2.10D-06 NDo=     1
 LinEq1:  Iter= 14 NonCon=     1 RMS=3.08D-08 Max=6.18D-07 NDo=     1
 LinEq1:  Iter= 15 NonCon=     1 RMS=1.39D-08 Max=3.64D-07 NDo=     1
 LinEq1:  Iter= 16 NonCon=     1 RMS=5.45D-09 Max=1.21D-07 NDo=     1
 LinEq1:  Iter= 17 NonCon=     1 RMS=2.22D-09 Max=7.16D-08 NDo=     1
 LinEq1:  Iter= 18 NonCon=     1 RMS=8.04D-10 Max=4.08D-08 NDo=     1
 LinEq1:  Iter= 19 NonCon=     1 RMS=2.69D-10 Max=1.52D-08 NDo=     1
 LinEq1:  Iter= 20 NonCon=     1 RMS=1.06D-10 Max=5.45D-09 NDo=     1
 LinEq1:  Iter= 21 NonCon=     0 RMS=3.33D-11 Max=9.85D-10 NDo=     1
 Linear equations converged to 1.000D-10 1.000D-09 after    21 iterations.
 End of Minotr F.D. properties file   721 does not exist.
 End of Minotr F.D. properties file   722 does not exist.
 End of Minotr F.D. properties file   788 does not exist.
 Calling FoFJK, ICntrl=  10002127 FMM=F ISym2X=0 I1Cent= 0 IOpClX= 1 NMat=1 NMatS=1 NMatT=0.
 -------------------------------------------------------------------
 Center     Atomic                   Forces (Hartrees/Bohr)
 Number     Number              X              Y              Z
 -------------------------------------------------------------------
      1        6          -0.000077236   -0.000141241    0.000109825
      2        1           0.000002418    0.000006211    0.000008234
      3        1          -0.000023805   -0.000016668    0.000001787
      4        6           0.000152764    0.000140727   -0.000147785
      5        1           0.000071249    0.000013191    0.000036602
      6        1           0.000015980   -0.000009632   -0.000000880
      7        1           0.000007145   -0.000017333    0.000003935
      8        8          -0.000022772    0.000927798    0.000664755
      9        8           0.000130501   -0.001025228   -0.000640364
     10        1          -0.000102890    0.000089329    0.000034911
     11        6          -0.000051230   -0.000062080   -0.000060835
     12        6          -0.000070020    0.000089260   -0.000010885
     13        1          -0.000032310   -0.000007498   -0.000004461
     14        1           0.000004066    0.000009600    0.000003704
     15        1          -0.000003860    0.000003564    0.000001457
 -------------------------------------------------------------------
 Cartesian Forces:  Max     0.001025228 RMS     0.000255468

 GradGradGradGradGradGradGradGradGradGradGradGradGradGradGradGradGradGrad
 Berny optimization.
 FormGI is forming the generalized inverse of G from B-inverse, IUseBI=4.
 Internal  Forces:  Max     0.001211857 RMS     0.000247416
 Search for a saddle point.
 Step number   2 out of a maximum of  100 on scan point     1 out of    37
 All quantities printed in internal units (Hartrees-Bohrs-Radians)
 Swapping is turned off.
 Update second derivatives using D2CorX and points    1    2
 ITU=  0  0
     Eigenvalues ---   -0.08658   0.00549   0.00824   0.02043   0.02168
     Eigenvalues ---    0.02793   0.03833   0.03889   0.04284   0.04754
     Eigenvalues ---    0.06884   0.08428   0.08476   0.10526   0.10954
     Eigenvalues ---    0.11047   0.11586   0.12599   0.13520   0.14006
     Eigenvalues ---    0.16865   0.17496   0.18031   0.18425   0.24100
     Eigenvalues ---    0.28872   0.32921   0.33574   0.34079   0.34626
     Eigenvalues ---    0.34894   0.35221   0.35604   0.35762   0.35971
     Eigenvalues ---    0.36383   0.43937   0.601161000.000001000.00000
     Eigenvalues --- 1000.000001000.000001000.000001000.000001000.00000
     Eigenvalues --- 1000.000001000.000001000.000001000.000001000.00000
     Eigenvalues --- 1000.00000
 Eigenvectors required to have negative eigenvalues:
                          R10       R3        R9        R4        D3
   1                    0.73825  -0.58762  -0.16066   0.11709   0.11028
                          D2        A2        D4        D5        A3
   1                    0.10485   0.09490  -0.07719  -0.07177  -0.06136
 RFO step:  Lambda0=9.181656679D-08 Lambda=-1.57022925D-05.
 Linear search not attempted -- option 19 set.
 Iteration  1 RMS(Cart)=  0.01132617 RMS(Int)=  0.00002057
 Iteration  2 RMS(Cart)=  0.00003449 RMS(Int)=  0.00000004
 Iteration  3 RMS(Cart)=  0.00000000 RMS(Int)=  0.00000004
 Iteration  1 RMS(Cart)=  0.00000000 RMS(Int)=  0.00000000
 Variable       Old X    -DE/DX   Delta X   Delta X   Delta X     New X
                                 (Linear)    (Quad)   (Total)
    R1        2.05049  -0.00000   0.00000  -0.00001  -0.00001   2.05048
    R2        2.05113  -0.00000   0.00000   0.00000   0.00000   2.05113
    R3        2.48452   0.00024   0.00000  -0.00133  -0.00133   2.48320
    R4        2.73054   0.00003   0.00000   0.00017   0.00017   2.73071
    R5        2.05863  -0.00008   0.00000  -0.00003  -0.00003   2.05860
    R6        2.05526  -0.00001   0.00000   0.00003   0.00003   2.05529
    R7        2.05673   0.00001   0.00000  -0.00005  -0.00005   2.05667
    R8        2.69137   0.00022   0.00000   0.00038   0.00038   2.69175
    R9        2.62836   0.00121   0.00000   0.00373   0.00373   2.63209
   R10        2.31229   0.00033   0.00000   0.00211   0.00211   2.31441
   R11        2.53805   0.00011   0.00000   0.00012   0.00012   2.53817
   R12        2.04654  -0.00000   0.00000   0.00003   0.00003   2.04657
   R13        2.04441  -0.00000   0.00000  -0.00000  -0.00000   2.04441
   R14        2.03960   0.00000   0.00000  -0.00000  -0.00000   2.03960
    A1        1.98485  -0.00000   0.00000  -0.00017  -0.00017   1.98467
    A2        1.74360  -0.00014   0.00000   0.00050   0.00050   1.74411
    A3        2.03403  -0.00007   0.00000  -0.00026  -0.00026   2.03377
    A4        1.82151  -0.00011   0.00000  -0.00093  -0.00093   1.82058
    A5        2.02668  -0.00003   0.00000  -0.00013  -0.00013   2.02655
    A6        1.80027   0.00037   0.00000   0.00121   0.00121   1.80148
    A7        1.91982  -0.00000   0.00000   0.00014   0.00014   1.91996
    A8        1.92135  -0.00000   0.00000   0.00008   0.00008   1.92143
    A9        1.92955   0.00005   0.00000   0.00029   0.00029   1.92984
   A10        1.92898  -0.00000   0.00000  -0.00017  -0.00017   1.92881
   A11        1.83893  -0.00000   0.00000  -0.00035  -0.00035   1.83858
   A12        1.92385  -0.00004   0.00000  -0.00001  -0.00001   1.92384
   A13        1.88703   0.00009   0.00000  -0.00051  -0.00051   1.88652
   A14        1.80186   0.00058   0.00000   0.00005   0.00005   1.80190
   A15        2.17208   0.00008   0.00000   0.00008   0.00008   2.17216
   A16        2.04107  -0.00004   0.00000   0.00002   0.00002   2.04109
   A17        2.06893  -0.00004   0.00000  -0.00011  -0.00011   2.06882
   A18        2.11427   0.00001   0.00000   0.00003   0.00003   2.11431
   A19        2.12079  -0.00000   0.00000  -0.00005  -0.00005   2.12074
   A20        2.04805  -0.00001   0.00000   0.00002   0.00002   2.04807
   A21        3.08759   0.00066   0.00000   0.00378   0.00378   3.09137
   A22        3.03728   0.00033   0.00000   0.00679   0.00679   3.04407
    D1       -0.27114   0.00008   0.00000   0.00000  -0.00000  -0.27114
    D2       -2.64811   0.00007   0.00000  -0.00396  -0.00396  -2.65208
    D3        0.54472   0.00004   0.00000  -0.00368  -0.00368   0.54104
    D4       -0.23562  -0.00006   0.00000  -0.00476  -0.00476  -0.24039
    D5        2.95721  -0.00009   0.00000  -0.00448  -0.00448   2.95273
    D6        1.74482   0.00004   0.00000  -0.00518  -0.00518   1.73964
    D7       -1.34553   0.00001   0.00000  -0.00490  -0.00490  -1.35043
    D8        1.09998   0.00001   0.00000   0.00463   0.00463   1.10461
    D9       -3.10970   0.00003   0.00000   0.00474   0.00474  -3.10496
   D10       -1.02830   0.00001   0.00000   0.00433   0.00433  -1.02397
   D11       -1.63352  -0.00057   0.00000  -0.00898  -0.00898  -1.64249
   D12        0.04528  -0.00002   0.00000  -0.00004  -0.00004   0.04524
   D13       -3.10917  -0.00002   0.00000   0.00022   0.00022  -3.10896
   D14        3.13487   0.00001   0.00000  -0.00032  -0.00032   3.13455
   D15       -0.01958   0.00001   0.00000  -0.00007  -0.00007  -0.01964
         Item               Value     Threshold  Converged?
 Maximum Force            0.001212     0.000450     NO 
 RMS     Force            0.000250     0.000300     YES
 Maximum Displacement     0.039528     0.001800     NO 
 RMS     Displacement     0.011328     0.001200     NO 
 Predicted change in Energy=-7.805234D-06
 GradGradGradGradGradGradGradGradGradGradGradGradGradGradGradGradGradGrad

                          Input orientation:                          
 ---------------------------------------------------------------------
 Center     Atomic      Atomic             Coordinates (Angstroms)
 Number     Number       Type             X           Y           Z
 ---------------------------------------------------------------------
      1          6           0       -1.230898   -1.175804   -0.421168
      2          1           0       -1.493848   -2.174658   -0.088725
      3          1           0       -1.341190   -1.028610   -1.490884
      4          6           0        1.749397    1.051503   -0.406906
      5          1           0        0.959681    1.126726   -1.153497
      6          1           0        1.871331    2.004385    0.103042
      7          1           0        2.682419    0.749351   -0.878784
      8          8           0        1.388962    0.122653    0.611073
      9          8           0        1.264426   -1.134684    0.024890
     10          1           0        0.068776   -1.208174   -0.230035
     11          6           0       -1.661269   -0.081788    0.419086
     12          6           0       -1.924090    1.158701   -0.023792
     13          1           0       -1.728220   -0.276524    1.482327
     14          1           0       -1.863602    1.401518   -1.076307
     15          1           0       -2.214527    1.949011    0.651457
 ---------------------------------------------------------------------
                    Distance matrix (angstroms):
                    1          2          3          4          5
     1  C    0.000000
     2  H    1.085067   0.000000
     3  H    1.085413   1.817355   0.000000
     4  C    3.720654   4.585629   3.879898   0.000000
     5  H    3.261378   4.248845   3.170696   1.089362   0.000000
     6  H    4.473503   5.368949   4.696802   1.087612   1.783335
     7  H    4.385167   5.158995   4.441310   1.088345   1.784854
     8  O    3.100835   3.752059   3.632817   1.424415   2.075127
     9  O    2.535212   2.950005   3.016298   2.280583   2.568159
    10  H    1.314052   1.842784   1.899996   2.821687   2.664255
    11  C    1.445031   2.160094   2.155668   3.687717   3.286776
    12  C    2.467455   3.361638   2.697491   3.694967   3.097320
    13  H    2.163175   2.475086   3.091182   4.174528   4.017648
    14  H    2.733516   3.728414   2.519982   3.691121   2.837675
    15  H    3.447103   4.251106   3.770752   4.199803   3.742941
[...]
               7          8          9         10         11         12
     1  C   -0.000882  -0.002373  -0.066380   0.233760   0.370414  -0.061887
     2  H    0.000020   0.000504  -0.000393  -0.011072  -0.034051   0.004731
     3  H    0.000014   0.000270  -0.000723  -0.007486  -0.046520  -0.000891
     4  C    0.413321   0.298187  -0.045592   0.001310  -0.001191  -0.003191
     5  H   -0.054678  -0.049728  -0.000881   0.003799   0.001054  -0.003246
     6  H   -0.027513  -0.025725   0.006680  -0.000840   0.000157   0.000871
     7  H    0.604581  -0.037976   0.004697   0.000668   0.000678   0.000229
     8  O   -0.037976   7.933539   0.075399  -0.024575   0.006215   0.003161
     9  O    0.004697   0.075399   8.090401   0.171650  -0.012937   0.000651
    10  H    0.000668  -0.024575   0.171650   0.431286  -0.005252  -0.006403
    11  C    0.000678   0.006215  -0.012937  -0.005252   4.888435   0.568313
    12  C    0.000229   0.003161   0.000651  -0.006403   0.568313   5.010536
    13  H   -0.000001   0.000422   0.000572  -0.000658   0.409775  -0.040928
    14  H    0.000015  -0.000056  -0.000057   0.000087  -0.049874   0.408082
    15  H   -0.000004  -0.000016   0.000017  -0.000095  -0.043692   0.421080
              13         14         15
     1  C   -0.033518  -0.004489   0.005819
     2  H   -0.005432  -0.000041  -0.000273
     3  H    0.005317   0.003446   0.000023
     4  C   -0.000024  -0.000366   0.000102
     5  H    0.000117   0.000612  -0.000008
     6  H   -0.000051   0.000035  -0.000020
     7  H   -0.000001   0.000015  -0.000004
     8  O    0.000422  -0.000056  -0.000016
     9  O    0.000572  -0.000057   0.000017
    10  H   -0.000658   0.000087  -0.000095
    11  C    0.409775  -0.049874  -0.043692
    12  C   -0.040928   0.408082   0.421080
    13  H    0.522051   0.005939  -0.006839
    14  H    0.005939   0.542819  -0.033684
    15  H   -0.006839  -0.033684   0.525427
          Atomic-Atomic Spin Densities.
               1          2          3          4          5          6
     1  C    0.506459   0.001129   0.002998   0.001781  -0.004999   0.000044
     2  H    0.001129  -0.021971   0.002313  -0.000068   0.000172  -0.000003
     3  H    0.002998   0.002313  -0.021565  -0.000200   0.000712   0.000001
     4  C    0.001781  -0.000068  -0.000200  -0.007858   0.001435   0.000973
     5  H   -0.004999   0.000172   0.000712   0.001435   0.004621  -0.000600
     6  H    0.000044  -0.000003   0.000001   0.000973  -0.000600  -0.001889
     7  H    0.000859  -0.000027  -0.000070  -0.000434  -0.001208   0.000448
     8  O    0.012148  -0.000427  -0.000467   0.001714  -0.001867   0.000315
     9  O   -0.068149   0.003064   0.002428  -0.002967   0.004285  -0.000197
    10  H    0.051398   0.002439   0.001876   0.001956  -0.003868   0.000121
    11  C   -0.017309   0.001567   0.001566  -0.001283   0.001194  -0.000140
    12  C   -0.017975  -0.000708  -0.000769  -0.002572   0.004433  -0.000006
    13  H   -0.001381   0.000092  -0.000014  -0.000013  -0.000000   0.000006
    14  H    0.000111  -0.000057  -0.000206   0.000045  -0.000198  -0.000002
    15  H   -0.000118   0.000041   0.000026  -0.000046   0.000113   0.000001
               7          8          9         10         11         12
     1  C    0.000859   0.012148  -0.068149   0.051398  -0.017309  -0.017975
     2  H   -0.000027  -0.000427   0.003064   0.002439   0.001567  -0.000708
     3  H   -0.000070  -0.000467   0.002428   0.001876   0.001566  -0.000769
     4  C   -0.000434   0.001714  -0.002967   0.001956  -0.001283  -0.002572
     5  H   -0.001208  -0.001867   0.004285  -0.003868   0.001194   0.004433
     6  H    0.000448   0.000315  -0.000197   0.000121  -0.000140  -0.000006
     7  H    0.001579  -0.000426   0.000045   0.001303  -0.000257  -0.000302
     8  O   -0.000426   0.091502  -0.052202   0.010382  -0.003030  -0.004346
     9  O    0.000045  -0.052202   0.604932  -0.049936   0.008246   0.002465
    10  H    0.001303   0.010382  -0.049936  -0.100782   0.006892  -0.000441
    11  C   -0.000257  -0.003030   0.008246   0.006892  -0.265059   0.005308
    12  C   -0.000302  -0.004346   0.002465  -0.000441   0.005308   0.431290
    13  H    0.000001   0.000015  -0.000018  -0.000170  -0.002579  -0.001034
    14  H    0.000011   0.000084  -0.000072   0.000066   0.000374   0.004519
    15  H   -0.000005  -0.000086   0.000031  -0.000027  -0.000857   0.004205
              13         14         15
     1  C   -0.001381   0.000111  -0.000118
     2  H    0.000092  -0.000057   0.000041
     3  H   -0.000014  -0.000206   0.000026
     4  C   -0.000013   0.000045  -0.000046
     5  H   -0.000000  -0.000198   0.000113
     6  H    0.000006  -0.000002   0.000001
     7  H    0.000001   0.000011  -0.000005
     8  O    0.000015   0.000084  -0.000086
     9  O   -0.000018  -0.000072   0.000031
    10  H   -0.000170   0.000066  -0.000027
    11  C   -0.002579   0.000374  -0.000857
    12  C   -0.001034   0.004519   0.004205
    13  H    0.013828  -0.000053   0.000265
    14  H   -0.000053  -0.023439   0.002682
    15  H    0.000265   0.002682  -0.024669
 Mulliken charges and spin densities:
               1          2
     1  C   -0.302611   0.466997
     2  H    0.124661  -0.012444
     3  H    0.110525  -0.011372
     4  C   -0.057364  -0.007538
     5  H    0.069086   0.004226
     6  H    0.095076  -0.000928
     7  H    0.096832   0.001516
     8  O   -0.177247   0.053310
     9  O   -0.223104   0.451954
    10  H    0.213821  -0.078790
    11  C   -0.051523  -0.265367
    12  C   -0.301107   0.424066
    13  H    0.143257   0.008946
    14  H    0.127532  -0.016133
    15  H    0.132163  -0.018445
 Sum of Mulliken charges =  -0.00000   1.00000
 Mulliken charges and spin densities with hydrogens summed into heavy atoms:
               1          2
     1  C   -0.067424   0.443182
     4  C    0.203632  -0.002723
     8  O   -0.177247   0.053310
     9  O   -0.009282   0.373164
    11  C    0.091734  -0.256421
    12  C   -0.041412   0.389489
 Electronic spatial extent (au):  <R**2>=            788.9177
 Charge=             -0.0000 electrons
 Dipole moment (field-independent basis, Debye):
    X=             -1.1094    Y=             -1.8737    Z=             -0.7960  Tot=              2.3184
 Quadrupole moment (field-independent basis, Debye-Ang):
   XX=            -37.8576   YY=            -39.4833   ZZ=            -35.9035
   XY=             -4.0584   XZ=             -2.3038   YZ=              0.2137
 Traceless Quadrupole moment (field-independent basis, Debye-Ang):
   XX=             -0.1095   YY=             -1.7352   ZZ=              1.8447
   XY=             -4.0584   XZ=             -2.3038   YZ=              0.2137
 Octapole moment (field-independent basis, Debye-Ang**2):
  XXX=             28.5964  YYY=            -45.9374  ZZZ=              8.7704  XYY=             -2.2496
  XXY=            -14.4207  XXZ=             -1.7455  XZZ=              1.3955  YZZ=            -14.1243
  YYZ=              4.3022  XYZ=             -1.2940
 Hexadecapole moment (field-independent basis, Debye-Ang**3):
 XXXX=           -628.5264 YYYY=           -172.2009 ZZZZ=           -237.0435 XXXY=            -35.9795
 XXXZ=              8.0857 YYYX=            -33.6907 YYYZ=            -29.1283 ZZZX=              8.2534
 ZZZY=            -27.5211 XXYY=           -130.8672 XXZZ=           -134.5625 YYZZ=            -71.6231
 XXYZ=             -9.9317 YYXZ=              2.6571 ZZXY=            -12.2754
 N-N= 2.401749298862D+02 E-N=-1.200690157043D+03  KE= 3.062736850336D+02
                          Isotropic Fermi Contact Couplings
        Atom                 a.u.       MegaHertz       Gauss      10(-4) cm-1
     1  C(13)              0.06481      72.86200      25.99897      24.30415
     2  H(1)              -0.00342     -15.30843      -5.46243      -5.10634
     3  H(1)              -0.00321     -14.35655      -5.12278      -4.78883
     4  C(13)             -0.00476      -5.35606      -1.91118      -1.78659
     5  H(1)               0.00209       9.34936       3.33608       3.11861
     6  H(1)              -0.00014      -0.60788      -0.21691      -0.20277
     7  H(1)               0.00066       2.96163       1.05678       0.98789
     8  O(17)              0.02039     -12.35915      -4.41005      -4.12257
     9  O(17)              0.03119     -18.90818      -6.74691      -6.30709
    10  H(1)              -0.02081     -93.00907     -33.18795     -31.02449
    11  C(13)             -0.01132     -12.72202      -4.53953      -4.24361
    12  C(13)              0.00771       8.66465       3.09176       2.89022
    13  H(1)               0.00067       3.01447       1.07564       1.00552
    14  H(1)              -0.00342     -15.28299      -5.45335      -5.09786
    15  H(1)              -0.00351     -15.66996      -5.59143      -5.22694
 --------------------------------------------------------
       Center         ----  Spin Dipole Couplings  ----
                      3XX-RR        3YY-RR        3ZZ-RR
 --------------------------------------------------------
     1   Atom        0.449685     -0.198614     -0.251071
     2   Atom        0.003291     -0.002883     -0.000408
     3   Atom       -0.001764      0.026099     -0.024335
     4   Atom       -0.002675      0.001531      0.001144
     5   Atom       -0.001516      0.003555     -0.002040
     6   Atom       -0.000829     -0.002004      0.002832
     7   Atom        0.002291     -0.000119     -0.002172
     8   Atom        0.471594     -0.146264     -0.325330
     9   Atom        1.488378     -0.569845     -0.918533
    10   Atom        0.158868     -0.070280     -0.088589
    11   Atom       -0.072404      0.030624      0.041780
    12   Atom        0.253079     -0.149682     -0.103398
    13   Atom       -0.001607     -0.001750      0.003357
    14   Atom        0.000336      0.015336     -0.015671
    15   Atom        0.003892     -0.019701      0.015809
 --------------------------------------------------------
                        XY            XZ            YZ
 --------------------------------------------------------
     1   Atom        0.194929     -0.051203     -0.012188
     2   Atom       -0.001866     -0.014929      0.028597
     3   Atom        0.000882     -0.000401     -0.016731
     4   Atom       -0.004635     -0.004353      0.006322
     5   Atom       -0.002090     -0.000562      0.005830
     6   Atom       -0.001208     -0.003428      0.004186
     7   Atom       -0.005727     -0.003904      0.003196
     8   Atom        0.323446     -0.045006     -0.000600
     9   Atom        0.919489      0.163988      0.059400
    10   Atom        0.085948     -0.037669     -0.011808
    11   Atom       -0.018824      0.051389      0.015078
    12   Atom        0.068924     -0.144155     -0.025303
    13   Atom       -0.001626      0.005182      0.001128
    14   Atom       -0.005775     -0.002118     -0.005183
    15   Atom        0.000408      0.008358     -0.008067
 --------------------------------------------------------


 ---------------------------------------------------------------------------------
              Anisotropic Spin Dipole Couplings in Principal Axis System
 ---------------------------------------------------------------------------------

       Atom             a.u.   MegaHertz   Gauss  10(-4) cm-1        Axes

              Baa    -0.2559   -34.340   -12.253   -11.454  0.1960 -0.4855  0.8520
     1 C(13)  Bbb    -0.2515   -33.753   -12.044   -11.259 -0.1936  0.8326  0.5190
              Bcc     0.5074    68.092    24.297    22.713  0.9613  0.2666 -0.0692
 
              Baa    -0.0327   -17.433    -6.221    -5.815  0.2583 -0.6605  0.7050
     2 H(1)   Bbb     0.0004     0.228     0.081     0.076  0.8797  0.4625  0.1109
              Bcc     0.0322    17.206     6.139     5.739 -0.3993  0.5915  0.7005
 
              Baa    -0.0294   -15.676    -5.594    -5.229  0.0047  0.2886  0.9574
     3 H(1)   Bbb    -0.0018    -0.956    -0.341    -0.319  0.9996 -0.0292  0.0039
              Bcc     0.0312    16.632     5.935     5.548  0.0291  0.9570 -0.2887
 
              Baa    -0.0057    -0.766    -0.273    -0.256  0.8959  0.3937  0.2058
     4 C(13)  Bbb    -0.0050    -0.668    -0.238    -0.223  0.1129 -0.6499  0.7516
              Bcc     0.0107     1.434     0.512     0.478 -0.4296  0.6501  0.6267
 
              Baa    -0.0058    -3.101    -1.106    -1.034 -0.1586 -0.5470  0.8220
     5 H(1)   Bbb    -0.0019    -1.003    -0.358    -0.334  0.9626  0.0997  0.2521
              Bcc     0.0077     4.103     1.464     1.369 -0.2198  0.8312  0.5107
 
              Baa    -0.0046    -2.454    -0.876    -0.819 -0.2594  0.7854 -0.5620
     6 H(1)   Bbb    -0.0023    -1.231    -0.439    -0.411  0.8692  0.4435  0.2186
              Bcc     0.0069     3.685     1.315     1.229 -0.4209  0.4318  0.7977
 
              Baa    -0.0048    -2.544    -0.908    -0.848  0.6120  0.7892 -0.0513
     7 H(1)   Bbb    -0.0044    -2.354    -0.840    -0.785  0.3501 -0.2121  0.9124
              Bcc     0.0092     4.898     1.748     1.634  0.7092 -0.5763 -0.4061
 
              Baa    -0.3332    24.111     8.603     8.043  0.1689 -0.2893  0.9422
     8 O(17)  Bbb    -0.2786    20.157     7.193     6.724 -0.3566  0.8733  0.3320
              Bcc     0.6118   -44.269   -15.796   -14.766  0.9189  0.3921 -0.0444
 
              Baa    -0.9304    67.325    24.023    22.457 -0.1611  0.2536  0.9538
     9 O(17)  Bbb    -0.9199    66.561    23.751    22.202 -0.3234  0.8995 -0.2938
              Bcc     1.8503  -133.886   -47.774   -44.660  0.9324  0.3558  0.0629
 
              Baa    -0.0990   -52.840   -18.855   -17.626 -0.3314  0.9329 -0.1406
    10 H(1)   Bbb    -0.0940   -50.164   -17.900   -16.733  0.0855  0.1781  0.9803
              Bcc     0.1931   103.004    36.755    34.359  0.9396  0.3129 -0.1388
 
              Baa    -0.0963   -12.922    -4.611    -4.310  0.9156  0.1786 -0.3603
    11 C(13)  Bbb     0.0330     4.423     1.578     1.475 -0.2513  0.9536 -0.1659
              Bcc     0.0633     8.499     3.033     2.835  0.3139  0.2425  0.9180
 
              Baa    -0.1614   -21.654    -7.727    -7.223 -0.1051  0.9804  0.1665
    12 C(13)  Bbb    -0.1543   -20.704    -7.388    -6.906  0.3492 -0.1203  0.9293
              Bcc     0.3157    42.359    15.115    14.129  0.9311  0.1558 -0.3297
 
              Baa    -0.0058    -3.110    -1.110    -1.037  0.7598  0.4362 -0.4822
    13 H(1)   Bbb    -0.0008    -0.423    -0.151    -0.141 -0.3748  0.8998  0.2234
              Bcc     0.0066     3.533     1.261     1.179  0.5313  0.0109  0.8471
 
              Baa    -0.0171    -9.106    -3.249    -3.037  0.1795  0.1865  0.9659
    14 H(1)   Bbb    -0.0008    -0.416    -0.148    -0.139  0.9380  0.2637 -0.2252
              Bcc     0.0178     9.521     3.397     3.176 -0.2967  0.9464 -0.1276
 
              Baa    -0.0216   -11.548    -4.121    -3.852 -0.0904  0.9692  0.2289
    15 H(1)   Bbb     0.0003     0.170     0.061     0.057  0.9018  0.1772 -0.3942
              Bcc     0.0213    11.379     4.060     3.795  0.4227 -0.1708  0.8900
 

 ---------------------------------------------------------------------------------

 1\1\GINC-N21\Scan\UB2PLYPD3-FC\CC-pVTZ\C4H9O2(2)\ROOT\14-Jun-2019\0\\#
  opt=(calcfc,ts,noeigentest,maxcyc=500,modredundant) uB2PLYPD3/cc-pvtz
  scf=maxcyc=500 nosymm\\Title Card Required\\0,2\C,-1.2577841877,0.329
 4811568,1.1704624628\H,-1.6259233833,0.9986802563,1.9411835404\H,-1.19
 32932681,-0.7068538956,1.4866550407\C,1.815935175,-0.0926899845,-0.890
 0157767\H,1.1562933197,-0.9225063304,-0.6390798486\H,1.916616359,-0.01
 08187683,-1.9698609512\H,2.7899465016,-0.2358249971,-0.4260087708\O,1.
 2471028599,1.1437060737,-0.4697478437\O,1.1379620386,1.1198225101,0.91
 8691294\H,-0.00711776,0.7267316243,1.1039571942\C,-1.7490129195,0.5561
 753824,-0.169527111\C,-1.8679677971,-0.3984005709,-1.1068525027\H,-1.9
 909034067,1.5772716479,-0.4373671871\H,-1.631232195,-1.4308926173,-0.8
 870518145\H,-2.2132723364,-0.1702774874,-2.1036607259\\Version=ES64L-G
 16RevB.01\HF=-307.5800384,-307.5800698,-307.5799593,-307.5797608,-307.
 5795166,-307.579253,-307.5790078,-307.5787963,-307.5786389,-307.578541
 9,-307.5785129,-307.578539,-307.5786014,-307.5786738,-307.5787339,-307
 .578772,-307.5787905,-307.5787901,-307.5787742,-307.5787458,-307.57871
 28,-307.5786792,-307.5786458,-307.5786214,-307.5786006,-307.5785887,-3
 07.5785959,-307.578628,-307.5786901,-307.5787795,-307.5788867,-307.579
 0072,-307.5791487,-307.5793438,-307.5796112,-307.5798852,-307.5800469\
 MP2=-307.9640363,-307.9639697,-307.9636795,-307.963218,-307.9626929,-3
 07.9621993,-307.9617894,-307.9614791,-307.961268,-307.9611515,-307.961
 1205,-307.9611557,-307.9612207,-307.9612761,-307.961301,-307.9612974,-
 307.9612771,-307.9612433,-307.9611992,-307.9611498,-307.9611022,-307.9
 610666,-307.9610489,-307.961049,-307.9610624,-307.9610907,-307.9611451
 ,-307.9612396,-307.9613913,-307.9616097,-307.9619055,-307.9622787,-307
 .9627177,-307.9631802,-307.9635924,-307.9638945,-307.9640389\PUHF=-307
 .590532,-307.5905855,-307.5904415,-307.5901554,-307.5897923,-307.58941
 31,-307.5890834,-307.588819,-307.5886372,-307.5885389,-307.5885227,-30
 7.5885673,-307.5886478,-307.588733,-307.5888037,-307.5888484,-307.5888
 708,-307.5888763,-307.5888693,-307.5888509,-307.5888367,-307.5888157,-
 307.5887934,-307.5887738,-307.5887484,-307.5887234,-307.5887122,-307.5
 887235,-307.5887642,-307.5888344,-307.5889285,-307.5890589,-307.589247
 2,-307.5895351,-307.5899228,-307.5903064,-307.590539\PMP2-0=-307.96563
 43,-307.9655727,-307.965278,-307.9648021,-307.9642555,-307.9637401,-30
 7.9633139,-307.9629931,-307.9627767,-307.9626592,-307.9626295,-307.962
 667,-307.9627345,-307.9627919,-307.9628189,-307.9628171,-307.9627983,-
 307.9627666,-307.9627253,-307.9626789,-307.9626362,-307.9626037,-307.9
 625891,-307.9625904,-307.9626031,-307.9626287,-307.9626793,-307.962769
 6,-307.9629169,-307.9631314,-307.9634242,-307.9637986,-307.9642456,-30
 7.9647247,-307.9651582,-307.9654794,-307.9656366\S2=0.817331,0.817513,
 0.817113,0.816113,0.814739,0.813384,0.812396,0.811777,0.811474,0.81142
 4,0.811518,0.81168,0.811847,0.811977,0.812115,0.812227,0.81232,0.81244
 9,0.812618,0.812794,0.813081,0.813278,0.813448,0.813534,0.813501,0.813
 364,0.813166,0.812941,0.81272,0.812533,0.812425,0.8126,0.813193,0.8142
 65,0.815547,0.816633,0.817313\S2-1=0.757585,0.757683,0.757666,0.757498
 ,0.757186,0.756836,0.756565,0.756387,0.756283,0.756239,0.756217,0.7562
 16,0.756223,0.756236,0.756277,0.756324,0.756376,0.756445,0.756534,0.75
 6623,0.756746,0.756829,0.756906,0.756941,0.756934,0.756891,0.756824,0.
 756749,0.756676,0.756609,0.756553,0.756558,0.756661,0.75689,0.75717,0.
 757405,0.757578\S2A=0.751996,0.752002,0.75199,0.751959,0.751918,0.7518
 76,0.751846,0.751827,0.751818,0.751817,0.75182,0.751825,0.751828,0.751
 831,0.751833,0.751835,0.751836,0.751839,0.751843,0.751848,0.751858,0.7
 51865,0.751871,0.751874,0.751873,0.751868,0.751859,0.75185,0.751839,0.
 751829,0.751822,0.751826,0.751846,0.751884,0.751931,0.751972,0.751995\
 RMSD=8.709e-09,8.440e-09,5.027e-09,9.220e-09,5.334e-09,6.516e-09,7.663
 e-09,9.247e-09,6.310e-09,5.150e-09,4.490e-09,4.421e-09,3.606e-09,9.582
 e-09,9.005e-09,8.782e-09,6.799e-09,6.202e-09,7.953e-09,7.797e-09,8.397
 e-09,9.334e-09,8.626e-09,8.342e-09,4.322e-09,9.388e-09,5.448e-09,6.986
 e-09,5.762e-09,9.612e-09,8.192e-09,7.489e-09,4.977e-09,6.266e-09,8.300
 e-09,7.433e-09,5.576e-09\PG=C01 [X(C4H9O2)]\\@


 NATURE GIVES TO EVERY TIME AND SEASON SOME BEAUTY OF ITS OWN.

                                                    --DICKENS
 Job cpu time:      12 days  2 hours 40 minutes 24.0 seconds.
 Elapsed time:       0 days 10 hours  8 minutes 53.8 seconds.
 File lengths (MBytes):  RWF=  57003 Int=      0 D2E=      0 Chk=     17 Scr=      1
 Normal termination of Gaussian 16 at Fri Jun 14 21:17:54 2019.
