 Entering Gaussian System, Link 0=g16
 Initial command:
 /ichec/packages/gaussian/16b01/l1.exe "/localscratch/341085/Gau-25895.inp" -scrdir="/localscratch/341085/"
 Entering Link 1 = /ichec/packages/gaussian/16b01/l1.exe PID=     26384.
  
 Copyright (c) 1988-2017, Gaussian, Inc.  All Rights Reserved.
  
 This is part of the Gaussian(R) 16 program.  It is based on
 the Gaussian(R) 09 system (copyright 2009, Gaussian, Inc.),
 the Gaussian(R) 03 system (copyright 2003, Gaussian, Inc.),
 the Gaussian(R) 98 system (copyright 1998, Gaussian, Inc.),
 the Gaussian(R) 94 system (copyright 1995, Gaussian, Inc.),
 the Gaussian 92(TM) system (copyright 1992, Gaussian, Inc.),
 the Gaussian 90(TM) system (copyright 1990, Gaussian, Inc.),
 the Gaussian 88(TM) system (copyright 1988, Gaussian, Inc.),
 the Gaussian 86(TM) system (copyright 1986, Carnegie Mellon
 University), and the Gaussian 82(TM) system (copyright 1983,
 Carnegie Mellon University). Gaussian is a federally registered
 trademark of Gaussian, Inc.
  
 This software contains proprietary and confidential information,
 including trade secrets, belonging to Gaussian, Inc.
  
 This software is provided under written license and may be
 used, copied, transmitted, or stored only in accord with that
 written license.
  
 The following legend is applicable only to US Government
 contracts under FAR:
  
                    RESTRICTED RIGHTS LEGEND
  
 Use, reproduction and disclosure by the US Government is
 subject to restrictions as set forth in subparagraphs (a)
 and (c) of the Commercial Computer Software - Restricted
 Rights clause in FAR 52.227-19.
  
 Gaussian, Inc.
 340 Quinnipiac St., Bldg. 40, Wallingford CT 06492
  
  
 ---------------------------------------------------------------
 Warning -- This program may not be used in any manner that
 competes with the business of Gaussian, Inc. or will provide
 assistance to any competitor of Gaussian, Inc.  The licensee
 of this program is prohibited from giving any competitor of
 Gaussian, Inc. access to this program.  By using this program,
 the user acknowledges that Gaussian, Inc. is engaged in the
 business of creating and licensing software in the field of
 computational chemistry and represents and warrants to the
 licensee that it is not a competitor of Gaussian, Inc. and that
 it will not use this program in any manner prohibited above.
 ---------------------------------------------------------------
  

 Cite this work as:
 Gaussian 16, Revision B.01,
 M. J. Frisch, G. W. Trucks, H. B. Schlegel, G. E. Scuseria, 
 M. A. Robb, J. R. Cheeseman, G. Scalmani, V. Barone, 
 G. A. Petersson, H. Nakatsuji, X. Li, M. Caricato, A. V. Marenich, 
 J. Bloino, B. G. Janesko, R. Gomperts, B. Mennucci, H. P. Hratchian, 
 J. V. Ortiz, A. F. Izmaylov, J. L. Sonnenberg, D. Williams-Young, 
 F. Ding, F. Lipparini, F. Egidi, J. Goings, B. Peng, A. Petrone, 
 T. Henderson, D. Ranasinghe, V. G. Zakrzewski, J. Gao, N. Rega, 
 G. Zheng, W. Liang, M. Hada, M. Ehara, K. Toyota, R. Fukuda, 
 J. Hasegawa, M. Ishida, T. Nakajima, Y. Honda, O. Kitao, H. Nakai, 
 T. Vreven, K. Throssell, J. A. Montgomery, Jr., J. E. Peralta, 
 F. Ogliaro, M. J. Bearpark, J. J. Heyd, E. N. Brothers, K. N. Kudin, 
 V. N. Staroverov, T. A. Keith, R. Kobayashi, J. Normand, 
 K. Raghavachari, A. P. Rendell, J. C. Burant, S. S. Iyengar, 
 J. Tomasi, M. Cossi, J. M. Millam, M. Klene, C. Adamo, R. Cammi, 
 J. W. Ochterski, R. L. Martin, K. Morokuma, O. Farkas, 
 J. B. Foresman, and D. J. Fox, Gaussian, Inc., Wallingford CT, 2016.
 
 ******************************************
 Gaussian 16:  ES64L-G16RevB.01 20-Dec-2017
                 8-Jun-2019 
 ******************************************
 %mem=80GB
 %nproc=40
 Will use up to   40 processors via shared memory.
 ----------------------------------------------------------------------
 # opt=(calcfc,ts,noeigentest,maxcyc=500) freq=noraman uB2PLYPD3/cc-pvt
 z
 ----------------------------------------------------------------------
 1/5=1,6=500,10=4,11=1,18=20,38=1/1,3;
 2/9=110,12=2,17=6,18=5,40=1/2;
 3/5=16,6=1,11=2,25=1,30=1,71=2,74=-60,116=2,140=1/1,2,3;
 4//1;
 5/5=2,38=5/2;
 8/6=3,8=1,10=1,19=11,30=-1/1;
 9/15=3,16=-3/6;
 11/6=1,8=1,15=11,17=12,24=-1,27=1,28=-2,29=300,32=6,42=3/1,2,10;
 10/6=2,21=1/2;
 8/6=4,8=1,10=1,19=11,30=-1/11,4;
 10/5=1,20=4/2;
 11/12=2,14=11,16=1,17=2,28=-2,42=3,76=2/2,10,12;
 6/7=2,8=2,9=2,10=2/1;
 7/10=1,12=2,25=1,44=2/1,2,3,16;
 1/5=1,6=500,10=4,11=1,18=20/3(2);
 2/9=110/2;
 99//99;
 2/9=110/2;
 3/5=16,6=1,11=2,25=1,30=1,71=1,74=-60,116=2/1,2,3;
 4/5=5,16=3,69=1/1;
 5/5=2,38=5/2;
 8/6=4,10=1/1;
 9/15=2,16=-3/6;
 10/5=1/2;
 7/12=2/1,2,3,16;
 1/5=1,6=500,11=1,18=20/3(-8);
 2/9=110/2;
 6/7=2,8=2,9=2,10=2/1;
 99/9=10/99;
 -------------------
 Title Card Required
 -------------------
 Symbolic Z-matrix:
 Charge =  0 Multiplicity = 2
 C                     1.77197  -0.03432   0.56844 
 H                     1.1878   -0.20796   1.476 
 C                     0.95378   0.77327  -0.40431 
 H                     1.44532   0.91523  -1.36778 
 C                    -2.16047  -0.63442   0.90625 
 H                    -1.24737  -0.49645   1.49088 
 H                    -2.99556  -0.14091   1.4001 
 H                    -2.36418  -1.6988    0.78961 
 O                    -2.03721  -0.01416  -0.35682 
 O                    -1.02534  -0.6473   -1.05125 
 H                    -0.04788  -0.01236  -0.78026 
 H                     2.63655   0.56608   0.87838 
 C                     0.27094   2.00325   0.12215 
 H                    -0.39794   2.43918  -0.61805 
 H                    -0.31469   1.77622   1.01443 
 H                     1.01072   2.76198   0.39953 
 C                     2.24616  -1.36086  -0.01272 
 H                     2.8482   -1.19685  -0.90726 
 H                     2.85159  -1.91518   0.70287 
 H                     1.39354  -1.97998  -0.2927 
 
 Add virtual bond connecting atoms H11        and O10        Dist= 2.26D+00.
 Add virtual bond connecting atoms H11        and C3         Dist= 2.51D+00.

 GradGradGradGradGradGradGradGradGradGradGradGradGradGradGradGradGradGrad
 Berny optimization.
 Initialization pass.
                           ----------------------------
                           !    Initial Parameters    !
                           ! (Angstroms and Degrees)  !
 --------------------------                            --------------------------
 ! Name  Definition              Value          Derivative Info.                !
 --------------------------------------------------------------------------------
 ! R1    R(1,2)                  1.0932         calculate D2E/DX2 analytically  !
 ! R2    R(1,3)                  1.506          calculate D2E/DX2 analytically  !
 ! R3    R(1,12)                 1.0973         calculate D2E/DX2 analytically  !
 ! R4    R(1,17)                 1.5239         calculate D2E/DX2 analytically  !
 ! R5    R(3,4)                  1.0909         calculate D2E/DX2 analytically  !
 ! R6    R(3,11)                 1.3274         calculate D2E/DX2 analytically  !
 ! R7    R(3,13)                 1.5021         calculate D2E/DX2 analytically  !
 ! R8    R(5,6)                  1.093          calculate D2E/DX2 analytically  !
 ! R9    R(5,7)                  1.0885         calculate D2E/DX2 analytically  !
 ! R10   R(5,8)                  1.09           calculate D2E/DX2 analytically  !
 ! R11   R(5,9)                  1.4125         calculate D2E/DX2 analytically  !
 ! R12   R(9,10)                 1.3809         calculate D2E/DX2 analytically  !
 ! R13   R(10,11)                1.1967         calculate D2E/DX2 analytically  !
 ! R14   R(13,14)                1.0887         calculate D2E/DX2 analytically  !
 ! R15   R(13,15)                1.0912         calculate D2E/DX2 analytically  !
 ! R16   R(13,16)                1.0954         calculate D2E/DX2 analytically  !
 ! R17   R(17,18)                1.0907         calculate D2E/DX2 analytically  !
 ! R18   R(17,19)                1.089          calculate D2E/DX2 analytically  !
 ! R19   R(17,20)                1.0903         calculate D2E/DX2 analytically  !
 ! A1    A(2,1,3)              109.3354         calculate D2E/DX2 analytically  !
 ! A2    A(2,1,12)             105.8706         calculate D2E/DX2 analytically  !
 ! A3    A(2,1,17)             110.1586         calculate D2E/DX2 analytically  !
 ! A4    A(3,1,12)             108.488          calculate D2E/DX2 analytically  !
 ! A5    A(3,1,17)             112.9255         calculate D2E/DX2 analytically  !
 ! A6    A(12,1,17)            109.8063         calculate D2E/DX2 analytically  !
 ! A7    A(1,3,4)              113.2953         calculate D2E/DX2 analytically  !
 ! A8    A(1,3,11)             105.9943         calculate D2E/DX2 analytically  !
 ! A9    A(1,3,13)             117.3686         calculate D2E/DX2 analytically  !
 ! A10   A(4,3,11)              99.6074         calculate D2E/DX2 analytically  !
 ! A11   A(4,3,13)             114.0678         calculate D2E/DX2 analytically  !
 ! A12   A(11,3,13)            103.9384         calculate D2E/DX2 analytically  !
 ! A13   A(6,5,7)              109.939          calculate D2E/DX2 analytically  !
 ! A14   A(6,5,8)              109.6728         calculate D2E/DX2 analytically  !
 ! A15   A(6,5,9)              110.4863         calculate D2E/DX2 analytically  !
 ! A16   A(7,5,8)              110.3595         calculate D2E/DX2 analytically  !
 ! A17   A(7,5,9)              105.8758         calculate D2E/DX2 analytically  !
 ! A18   A(8,5,9)              110.4522         calculate D2E/DX2 analytically  !
 ! A19   A(5,9,10)             108.1961         calculate D2E/DX2 analytically  !
 ! A20   A(9,10,11)            103.968          calculate D2E/DX2 analytically  !
 ! A21   A(3,13,14)            111.646          calculate D2E/DX2 analytically  !
 ! A22   A(3,13,15)            111.1129         calculate D2E/DX2 analytically  !
 ! A23   A(3,13,16)            110.4211         calculate D2E/DX2 analytically  !
 ! A24   A(14,13,15)           108.0305         calculate D2E/DX2 analytically  !
 ! A25   A(14,13,16)           108.0435         calculate D2E/DX2 analytically  !
 ! A26   A(15,13,16)           107.428          calculate D2E/DX2 analytically  !
 ! A27   A(1,17,18)            110.7103         calculate D2E/DX2 analytically  !
 ! A28   A(1,17,19)            111.4377         calculate D2E/DX2 analytically  !
 ! A29   A(1,17,20)            110.4202         calculate D2E/DX2 analytically  !
 ! A30   A(18,17,19)           107.9763         calculate D2E/DX2 analytically  !
 ! A31   A(18,17,20)           107.8456         calculate D2E/DX2 analytically  !
 ! A32   A(19,17,20)           108.3289         calculate D2E/DX2 analytically  !
 ! A33   L(3,11,10,6,-1)       176.0694         calculate D2E/DX2 analytically  !
 ! A34   L(3,11,10,6,-2)       175.3657         calculate D2E/DX2 analytically  !
 ! D1    D(2,1,3,4)           -175.2793         calculate D2E/DX2 analytically  !
 ! D2    D(2,1,3,11)           -67.0728         calculate D2E/DX2 analytically  !
 ! D3    D(2,1,3,13)            48.4291         calculate D2E/DX2 analytically  !
 ! D4    D(12,1,3,4)            69.7024         calculate D2E/DX2 analytically  !
 ! D5    D(12,1,3,11)          177.909          calculate D2E/DX2 analytically  !
 ! D6    D(12,1,3,13)          -66.5891         calculate D2E/DX2 analytically  !
 ! D7    D(17,1,3,4)           -52.2583         calculate D2E/DX2 analytically  !
 ! D8    D(17,1,3,11)           55.9483         calculate D2E/DX2 analytically  !
 ! D9    D(17,1,3,13)          171.4501         calculate D2E/DX2 analytically  !
 ! D10   D(2,1,17,18)         -178.7936         calculate D2E/DX2 analytically  !
 ! D11   D(2,1,17,19)          -58.6002         calculate D2E/DX2 analytically  !
 ! D12   D(2,1,17,20)           61.843          calculate D2E/DX2 analytically  !
 ! D13   D(3,1,17,18)           58.6441         calculate D2E/DX2 analytically  !
 ! D14   D(3,1,17,19)          178.8375         calculate D2E/DX2 analytically  !
 ! D15   D(3,1,17,20)          -60.7193         calculate D2E/DX2 analytically  !
 ! D16   D(12,1,17,18)         -62.5723         calculate D2E/DX2 analytically  !
 ! D17   D(12,1,17,19)          57.6211         calculate D2E/DX2 analytically  !
 ! D18   D(12,1,17,20)         178.0643         calculate D2E/DX2 analytically  !
 ! D19   D(1,3,10,9)           106.3529         calculate D2E/DX2 analytically  !
 ! D20   D(4,3,10,9)          -134.7105         calculate D2E/DX2 analytically  !
 ! D21   D(13,3,10,9)          -17.004          calculate D2E/DX2 analytically  !
 ! D22   D(1,3,13,14)         -172.35           calculate D2E/DX2 analytically  !
 ! D23   D(1,3,13,15)          -51.6724         calculate D2E/DX2 analytically  !
 ! D24   D(1,3,13,16)           67.4287         calculate D2E/DX2 analytically  !
 ! D25   D(4,3,13,14)           51.6842         calculate D2E/DX2 analytically  !
 ! D26   D(4,3,13,15)          172.3618         calculate D2E/DX2 analytically  !
 ! D27   D(4,3,13,16)          -68.5371         calculate D2E/DX2 analytically  !
 ! D28   D(11,3,13,14)         -55.7244         calculate D2E/DX2 analytically  !
 ! D29   D(11,3,13,15)          64.9532         calculate D2E/DX2 analytically  !
 ! D30   D(11,3,13,16)        -175.9457         calculate D2E/DX2 analytically  !
 ! D31   D(6,5,9,10)            63.6793         calculate D2E/DX2 analytically  !
 ! D32   D(7,5,9,10)          -177.3256         calculate D2E/DX2 analytically  !
 ! D33   D(8,5,9,10)           -57.8467         calculate D2E/DX2 analytically  !
 ! D34   D(5,9,10,11)          -91.6403         calculate D2E/DX2 analytically  !
 --------------------------------------------------------------------------------
 Trust Radius=3.00D-01 FncErr=1.00D-07 GrdErr=1.00D-07 EigMax=2.50D+02 EigMin=1.00D-04
 Number of steps in this run=    120 maximum allowed number of steps=    120.
 Search for a saddle point of order  1.
 GradGradGradGradGradGradGradGradGradGradGradGradGradGradGradGradGradGrad

                          Input orientation:                          
 ---------------------------------------------------------------------
 Center     Atomic      Atomic             Coordinates (Angstroms)
 Number     Number       Type             X           Y           Z
 ---------------------------------------------------------------------
      1          6           0        1.771974   -0.034324    0.568442
      2          1           0        1.187800   -0.207961    1.475996
      3          6           0        0.953778    0.773269   -0.404308
      4          1           0        1.445317    0.915230   -1.367780
      5          6           0       -2.160466   -0.634419    0.906245
      6          1           0       -1.247370   -0.496452    1.490883
      7          1           0       -2.995558   -0.140912    1.400097
      8          1           0       -2.364176   -1.698804    0.789609
      9          8           0       -2.037214   -0.014164   -0.356824
     10          8           0       -1.025344   -0.647297   -1.051249
     11          1           0       -0.047880   -0.012361   -0.780258
     12          1           0        2.636552    0.566075    0.878377
     13          6           0        0.270943    2.003250    0.122148
     14          1           0       -0.397939    2.439179   -0.618049
     15          1           0       -0.314689    1.776222    1.014430
     16          1           0        1.010722    2.761977    0.399526
     17          6           0        2.246165   -1.360860   -0.012720
     18          1           0        2.848200   -1.196846   -0.907256
     19          1           0        2.851585   -1.915176    0.702871
     20          1           0        1.393536   -1.979979   -0.292700
 ---------------------------------------------------------------------
                    Distance matrix (angstroms):
                    1          2          3          4          5
     1  C    0.000000
     2  H    1.093190   0.000000
     3  C    1.505953   2.133805   0.000000
     4  H    2.181127   3.068377   1.090890   0.000000
     5  C    3.992281   3.423064   3.660280   4.535887   0.000000
     6  H    3.190752   2.452244   3.170015   4.173172   1.092969
     7  H    4.840700   4.184584   4.437213   5.338347   1.088493
     8  H    4.463983   3.912834   4.306437   5.098994   1.089962
     9  O    3.920005   3.714499   3.093273   3.743505   1.412533
    10  O    3.290003   3.387918   2.520608   2.940382   2.262841
    11  H    2.265247   2.579893   1.327355   1.853441   2.773854
    12  H    1.097285   1.747902   2.126015   2.566354   4.945032
    13  C    2.569821   2.750088   1.502089   2.186968   3.672037
    14  H    3.497785   3.729201   2.155941   2.506414   3.857069
    15  H    2.798418   2.531304   2.151218   3.084453   3.038056
    16  H    2.902988   3.163965   2.145775   2.592820   4.674260
    17  C    1.523911   2.159997   2.525492   2.767333   4.559672
    18  H    2.165041   3.068340   2.779055   2.577019   5.356477
    19  H    2.172840   2.506090   3.472068   3.778410   5.177099
    20  H    2.161100   2.512103   2.790380   3.088805   3.984838
                    6          7          8          9         10
     6  H    0.000000
     7  H    1.786284   0.000000
     8  H    1.784570   1.788398   0.000000
     9  O    2.066513   2.005308   2.063789   0.000000
    10  O    2.556264   3.185477   2.507368   1.380929   0.000000
    11  H    2.613657   3.668689   3.267078   2.033900   1.196669
    12  H    4.072957   5.700236   5.490431   4.868931   4.313376
    13  C    3.229121   4.111036   4.592881   3.102735   3.175314
    14  H    3.713093   4.180599   4.792754   2.962153   3.179250
    15  H    2.502389   3.318313   4.040637   2.837765   3.262745
    16  H    4.111861   5.047592   5.607198   4.191532   4.227702
    17  C    3.900360   5.564170   4.691821   4.503258   3.505779
    18  H    4.797428   6.370901   5.504560   5.056578   3.914982
    19  H    4.408534   6.150058   5.220968   5.351370   4.440161
    20  H    3.515168   5.050928   3.920568   3.954565   2.863986
                   11         12         13         14         15
    11  H    0.000000
    12  H    3.208089   0.000000
    13  C    2.231294   2.869401   0.000000
    14  H    2.481713   3.867292   1.088728   0.000000
    15  H    2.547768   3.192615   1.091180   1.763925   0.000000
    16  H    3.195228   2.773915   1.095390   1.767479   1.762536
    17  C    2.769514   2.158595   3.903451   4.668833   4.177834
    18  H    3.131519   2.518168   4.235864   4.882800   4.747197
    19  H    3.771906   2.496727   4.727686   5.591480   4.873272
    20  H    2.487351   3.065763   4.159138   4.779560   4.328472
                   16         17         18         19         20
    16  H    0.000000
    17  C    4.323662   0.000000
    18  H    4.555907   1.090661   0.000000
    19  H    5.035529   1.088977   1.763099   0.000000
    20  H    4.807481   1.090263   1.762675   1.766711   0.000000
 Stoichiometry    C5H13O2(2)
 Framework group  C1[X(C5H13O2)]
 Deg. of freedom    54
 Full point group                 C1      NOp   1
 Largest Abelian subgroup         C1      NOp   1
 Largest concise Abelian subgroup C1      NOp   1
                         Standard orientation:                         
 ---------------------------------------------------------------------
 Center     Atomic      Atomic             Coordinates (Angstroms)
 Number     Number       Type             X           Y           Z
 ---------------------------------------------------------------------
      1          6           0        1.771974   -0.034324    0.568442
      2          1           0        1.187800   -0.207961    1.475996
      3          6           0        0.953778    0.773269   -0.404308
      4          1           0        1.445317    0.915230   -1.367780
      5          6           0       -2.160466   -0.634419    0.906245
      6          1           0       -1.247370   -0.496452    1.490883
      7          1           0       -2.995558   -0.140912    1.400097
      8          1           0       -2.364176   -1.698804    0.789609
      9          8           0       -2.037214   -0.014164   -0.356824
     10          8           0       -1.025344   -0.647297   -1.051249
     11          1           0       -0.047880   -0.012361   -0.780258
     12          1           0        2.636552    0.566075    0.878377
     13          6           0        0.270943    2.003250    0.122148
     14          1           0       -0.397939    2.439179   -0.618049
     15          1           0       -0.314689    1.776222    1.014430
     16          1           0        1.010722    2.761977    0.399526
     17          6           0        2.246165   -1.360860   -0.012720
     18          1           0        2.848200   -1.196846   -0.907256
     19          1           0        2.851585   -1.915176    0.702871
     20          1           0        1.393536   -1.979979   -0.292700
 ---------------------------------------------------------------------
 Rotational constants (GHZ):           3.0085067           1.4689636           1.2180277
 Standard basis: CC-pVTZ (5D, 7F)
 There are   440 symmetry adapted cartesian basis functions of A   symmetry.
 There are   392 symmetry adapted basis functions of A   symmetry.
   392 basis functions,   585 primitive gaussians,   440 cartesian basis functions
    30 alpha electrons       29 beta electrons
       nuclear repulsion energy       332.9627429401 Hartrees.
 NAtoms=   20 NActive=   20 NUniq=   20 SFac= 1.00D+00 NAtFMM=   60 NAOKFM=F Big=F
 Integral buffers will be    131072 words long.
 Raffenetti 2 integral format.
 Two-electron integral symmetry is turned on.
 Nuclear repulsion after empirical dispersion term =      332.9517963194 Hartrees.
 One-electron integrals computed using PRISM.
 NBasis=   392 RedAO= T EigKep=  5.16D-04  NBF=   392
 NBsUse=   392 1.00D-06 EigRej= -1.00D+00 NBFU=   392
 ExpMin= 1.03D-01 ExpMax= 1.53D+04 ExpMxC= 5.22D+02 IAcc=3 IRadAn=         5 AccDes= 0.00D+00
 Harris functional with IExCor=  419 and IRadAn=       5 diagonalized for initial guess.
 HarFok:  IExCor=  419 AccDes= 0.00D+00 IRadAn=         5 IDoV= 1 UseB2=F ITyADJ=14
 ICtDFT=  3500011 ScaDFX=  1.000000  1.000000  1.000000  1.000000
 FoFCou: FMM=F IPFlag=           0 FMFlag=      100000 FMFlg1=           0
         NFxFlg=           0 DoJE=T BraDBF=F KetDBF=T FulRan=T
         wScrn=  0.000000 ICntrl=       500 IOpCl=  0 I1Cent=   200000004 NGrid=           0
         NMat0=    1 NMatS0=      1 NMatT0=    0 NMatD0=    1 NMtDS0=    0 NMtDT0=    0
 Petite list used in FoFCou.
 Initial guess <Sx>= 0.0000 <Sy>= 0.0000 <Sz>= 0.5000 <S**2>= 0.7500 S= 0.5000
 Requested convergence on RMS density matrix=1.00D-08 within 128 cycles.
 Requested convergence on MAX density matrix=1.00D-06.
 Requested convergence on             energy=1.00D-06.
 No special actions if energy rises.
 Integral accuracy reduced to 1.0D-05 until final iterations.
 Initial convergence to 1.0D-05 achieved.  Increase integral accuracy.
 SCF Done:  E(UB2PLYPD3) =  -348.028721598     A.U. after   19 cycles
            NFock= 19  Conv=0.30D-08     -V/T= 2.0042
 <Sx>= 0.0000 <Sy>= 0.0000 <Sz>= 0.5000 <S**2>= 0.7683 S= 0.5091
 <L.S>=  0.00000000000    
 Annihilation of the first spin contaminant:
 S**2 before annihilation     0.7683,   after     0.7501
 DoSCS=T DFT=T ScalE2(SS,OS)=  0.270000  0.270000
 ExpMin= 1.03D-01 ExpMax= 1.53D+04 ExpMxC= 5.22D+02 IAcc=3 IRadAn=         5 AccDes= 0.00D+00
 HarFok:  IExCor=  205 AccDes= 0.00D+00 IRadAn=         5 IDoV=-2 UseB2=F ITyADJ=14
 ICtDFT= 12500011 ScaDFX=  1.000000  1.000000  1.000000  1.000000
 Range of M.O.s used for correlation:     8   392
 NBasis=   392 NAE=    30 NBE=    29 NFC=     7 NFV=     0
 NROrb=    385 NOA=    23 NOB=    22 NVA=   362 NVB=   363

 **** Warning!!: The largest alpha MO coefficient is  0.11781660D+02


 **** Warning!!: The largest beta MO coefficient is  0.11782577D+02

 DoSCS=T DFT=T ScalE2(SS,OS)=  0.270000  0.270000
 Disk-based method using ON**2 memory for 23 occupieds at a time.
 Permanent disk used for amplitudes=   169421973 words.
 Estimated scratch disk usage=  3394964776 words.
 Actual    scratch disk usage=  3282684712 words.
 JobTyp=2 Pass  1:  I=   8 to  30 NPSUse= 40 ParTrn=T ParDer=T DoDerP=T.
 (rs|ai) integrals will be sorted in core.
 Actual    scratch disk usage=  3282684712 words.
 JobTyp=3 Pass  1:  I=   8 to  29 NPSUse= 40 ParTrn=T ParDer=T DoDerP=T.
 (rs|ai) integrals will be sorted in core.
 Spin components of T(2) and E(2):
     alpha-alpha T2 =       0.7410179266D-01 E2=     -0.5382676641D-01
     alpha-beta  T2 =       0.4564840755D+00 E2=     -0.3430188488D+00
     beta-beta   T2 =       0.8045222171D-01 E2=     -0.5294582626D-01
 (S**2,0)=  0.76830D+00           (S**2,1)=  0.74248D+00
 Scaling Projection term by:   0.270000
 E(PUHF)=      -0.34803498089D+03        E(PMP2)=      -0.34847901647D+03
 E2(B2PLYPD3) =    -0.4497914415D+00 E(B2PLYPD3) =    -0.34847851303935D+03
 G2DrvN: will do    21 centers at a time, making    1 passes.
 Calling FoFCou, ICntrl=  3107 FMM=F I1Cent=   0 AccDes= 0.00D+00.
 End of G2Drv F.D. properties file   721 does not exist.
 End of G2Drv F.D. properties file   722 does not exist.
 End of G2Drv F.D. properties file   788 does not exist.
          IDoAtm=11111111111111111111
          Differentiating once with respect to electric field.
                with respect to dipole field.
          Differentiating once with respect to nuclear coordinates.
 CalDSu exits because no D1Ps are significant.
          There are    63 degrees of freedom in the 1st order CPHF.  IDoFFX=6 NUNeed=    63.
     60 vectors produced by pass  0 Test12= 3.39D-14 1.59D-09 XBig12= 8.55D+01 5.23D+00.
 AX will form    60 AO Fock derivatives at one time.
     60 vectors produced by pass  1 Test12= 3.39D-14 1.59D-09 XBig12= 7.05D+00 3.95D-01.
     60 vectors produced by pass  2 Test12= 3.39D-14 1.59D-09 XBig12= 3.42D-01 1.07D-01.
     60 vectors produced by pass  3 Test12= 3.39D-14 1.59D-09 XBig12= 4.55D-03 6.61D-03.
     60 vectors produced by pass  4 Test12= 3.39D-14 1.59D-09 XBig12= 3.99D-05 5.68D-04.
     60 vectors produced by pass  5 Test12= 3.39D-14 1.59D-09 XBig12= 4.80D-07 8.47D-05.
     59 vectors produced by pass  6 Test12= 3.39D-14 1.59D-09 XBig12= 4.30D-09 6.38D-06.
     20 vectors produced by pass  7 Test12= 3.39D-14 1.59D-09 XBig12= 2.55D-11 4.51D-07.
      3 vectors produced by pass  8 Test12= 3.39D-14 1.59D-09 XBig12= 1.65D-13 2.74D-08.
      2 vectors produced by pass  9 Test12= 3.39D-14 1.59D-09 XBig12= 1.36D-15 2.97D-09.
 InvSVY:  IOpt=1 It=  1 EMax= 7.99D-15
 Solved reduced A of dimension   444 with    63 vectors.
 End of Minotr F.D. properties file   721 does not exist.
 End of Minotr F.D. properties file   722 does not exist.
 End of Minotr F.D. properties file   788 does not exist.
 MDV= 10737418240.
 DoSCS=T DFT=T ScalE2(SS,OS)=  0.270000  0.270000
 Form MO integral derivatives with frozen-active canonical formalism.
 Discarding MO integrals.
 Reordered first order wavefunction length =    681858357
 In DefCFB: NBatch=  1 ICI= 30 ICA=363 LFMax= 73
            Large arrays: LIAPS= 14755319040 LIARS=  2347884000 words.
 In DefCFB: NBatch=  1 ICI= 30 ICA=363 LFMax= 73
            Large arrays: LIAPS= 14755319040 LIARS=  2347884000 words.
 Semi-Direct transformation.
 ModeAB=           4 MOrb=            30 LenV=   10732951845
 LASXX=    860785125 LTotXX=   860785125 LenRXX=  1733127225
 LTotAB=   872342100 MaxLAS=  1044570240 LenRXY=           0
 NonZer=  2593912350 LenScr=  3906126848 LnRSAI=  1044570240
 LnScr1=  1573000192 LExtra=           0 Total=   8256824505
 MaxDsk=          -1 SrtSym=           T ITran=            4
 JobTyp=1 Pass  1:  I=   1 to  30.
 (rs|ai) integrals will be sorted in core.
 ModeAB=           4 MOrb=            29 LenV=   10732951845
 LASXX=    833505211 LTotXX=   833505211 LenRXX=  1553741497
 LTotAB=   720236286 MaxLAS=  1009751232 LenRXY=           0
 NonZer=  2387246708 LenScr=  3594912768 LnRSAI=  1009751232
 LnScr1=  1520567296 LExtra=           0 Total=   7678972793
 MaxDsk=          -1 SrtSym=           T ITran=            4
 JobTyp=2 Pass  1:  I=   1 to  29.
 (rs|ai) integrals will be sorted in core.
 SymMOI:  orbitals are not symmetric.
 DoSCS=T DFT=T ScalE2(SS,OS)=  0.270000  0.270000
 Spin components of T(2) and E(2):
     alpha-alpha T2 =       0.7410179266D-01 E2=     -0.5382676641D-01
     alpha-beta  T2 =       0.4564840755D+00 E2=     -0.3430188488D+00
     beta-beta   T2 =       0.8045222171D-01 E2=     -0.5294582626D-01
 E2(B2PLYPD3) =    -0.4497914415D+00 E(B2PLYPD3) =    -0.34847851303935D+03
 (S**2,0)=  0.76830D+00           (S**2,1)=  0.74248D+00
 Scaling Projection term by:   0.270000
 E(PUHF)=      -0.34803498089D+03        E(PMP2)=      -0.34847901647D+03
          IDoAtm=11111111111111111111
          Differentiating once with respect to electric field.
                with respect to dipole field.
          Differentiating once with respect to nuclear coordinates.
          There are     1 degrees of freedom in the 1st order CPHF.  IDoFFX=0 NUNeed=     1.
 LinEq1:  Iter=  0 NonCon=     1 RMS=7.67D-04 Max=5.84D-02 NDo=     1
 AX will form     1 AO Fock derivatives at one time.
 LinEq1:  Iter=  1 NonCon=     1 RMS=2.56D-04 Max=8.85D-03 NDo=     1
 LinEq1:  Iter=  2 NonCon=     1 RMS=1.47D-04 Max=8.82D-03 NDo=     1
 LinEq1:  Iter=  3 NonCon=     1 RMS=5.94D-05 Max=1.14D-03 NDo=     1
 LinEq1:  Iter=  4 NonCon=     1 RMS=3.01D-05 Max=5.75D-04 NDo=     1
 LinEq1:  Iter=  5 NonCon=     1 RMS=2.02D-05 Max=7.51D-04 NDo=     1
 LinEq1:  Iter=  6 NonCon=     1 RMS=1.27D-05 Max=3.69D-04 NDo=     1
 LinEq1:  Iter=  7 NonCon=     1 RMS=4.43D-06 Max=1.01D-04 NDo=     1
 LinEq1:  Iter=  8 NonCon=     1 RMS=1.84D-06 Max=4.37D-05 NDo=     1
 LinEq1:  Iter=  9 NonCon=     1 RMS=8.31D-07 Max=2.44D-05 NDo=     1
 LinEq1:  Iter= 10 NonCon=     1 RMS=3.03D-07 Max=1.26D-05 NDo=     1
 LinEq1:  Iter= 11 NonCon=     1 RMS=1.19D-07 Max=5.28D-06 NDo=     1
 LinEq1:  Iter= 12 NonCon=     1 RMS=4.66D-08 Max=2.28D-06 NDo=     1
 LinEq1:  Iter= 13 NonCon=     1 RMS=1.89D-08 Max=1.06D-06 NDo=     1
 LinEq1:  Iter= 14 NonCon=     1 RMS=8.25D-09 Max=4.37D-07 NDo=     1
 LinEq1:  Iter= 15 NonCon=     1 RMS=3.24D-09 Max=1.39D-07 NDo=     1
 LinEq1:  Iter= 16 NonCon=     1 RMS=1.17D-09 Max=3.97D-08 NDo=     1
 LinEq1:  Iter= 17 NonCon=     1 RMS=4.01D-10 Max=1.18D-08 NDo=     1
 LinEq1:  Iter= 18 NonCon=     1 RMS=1.90D-10 Max=4.87D-09 NDo=     1
 LinEq1:  Iter= 19 NonCon=     1 RMS=8.07D-11 Max=2.64D-09 NDo=     1
 LinEq1:  Iter= 20 NonCon=     0 RMS=2.18D-11 Max=6.71D-10 NDo=     1
 Linear equations converged to 1.000D-10 1.000D-09 after    20 iterations.
 End of Minotr F.D. properties file   721 does not exist.
 End of Minotr F.D. properties file   722 does not exist.
 End of Minotr F.D. properties file   788 does not exist.
 Symmetrizing basis deriv contribution to polar:
 IMax=3 JMax=2 DiffMx= 0.00D+00
 G2DrvN: will do    21 centers at a time, making    1 passes.
 Calling FoFCou, ICntrl=  3107 FMM=F I1Cent=   0 AccDes= 0.00D+00.
 End of G2Drv F.D. properties file   721 does not exist.
 End of G2Drv F.D. properties file   722 does not exist.
 End of G2Drv F.D. properties file   788 does not exist.
 DoSCS=T DFT=T ScalE2(SS,OS)=  0.270000  0.270000
 R2 and R3 integrals will be kept in memory, NReq=  9455860260.
 DD1Dir will call FoFMem   1 times, MxPair=      2582
 NAB=   870 NAA=   435 NBB=   406.
 Discarding MO integrals.

 **********************************************************************

            Population analysis using the SCF Density.

 **********************************************************************

 Orbital symmetries:
 Alpha Orbitals:
       Occupied  (A) (A) (A) (A) (A) (A) (A) (A) (A) (A) (A) (A)
                 (A) (A) (A) (A) (A) (A) (A) (A) (A) (A) (A) (A)
                 (A) (A) (A) (A) (A) (A)
       Virtual   (A) (A) (A) (A) (A) (A) (A) (A) (A) (A) (A) (A)
                 (A) (A) (A) (A) (A) (A) (A) (A) (A) (A) (A) (A)
                 (A) (A) (A) (A) (A) (A) (A) (A) (A) (A) (A) (A)
                 (A) (A) (A) (A) (A) (A) (A) (A) (A) (A) (A) (A)
                 (A) (A) (A) (A) (A) (A) (A) (A) (A) (A) (A) (A)
                 (A) (A) (A) (A) (A) (A) (A) (A) (A) (A) (A) (A)
                 (A) (A) (A) (A) (A) (A) (A) (A) (A) (A) (A) (A)
                 (A) (A) (A) (A) (A) (A) (A) (A) (A) (A) (A) (A)
                 (A) (A) (A) (A) (A) (A) (A) (A) (A) (A) (A) (A)
                 (A) (A) (A) (A) (A) (A) (A) (A) (A) (A) (A) (A)
                 (A) (A) (A) (A) (A) (A) (A) (A) (A) (A) (A) (A)
                 (A) (A) (A) (A) (A) (A) (A) (A) (A) (A) (A) (A)
                 (A) (A) (A) (A) (A) (A) (A) (A) (A) (A) (A) (A)
                 (A) (A) (A) (A) (A) (A) (A) (A) (A) (A) (A) (A)
                 (A) (A) (A) (A) (A) (A) (A) (A) (A) (A) (A) (A)
                 (A) (A) (A) (A) (A) (A) (A) (A) (A) (A) (A) (A)
                 (A) (A) (A) (A) (A) (A) (A) (A) (A) (A) (A) (A)
                 (A) (A) (A) (A) (A) (A) (A) (A) (A) (A) (A) (A)
                 (A) (A) (A) (A) (A) (A) (A) (A) (A) (A) (A) (A)
                 (A) (A) (A) (A) (A) (A) (A) (A) (A) (A) (A) (A)
                 (A) (A) (A) (A) (A) (A) (A) (A) (A) (A) (A) (A)
                 (A) (A) (A) (A) (A) (A) (A) (A) (A) (A) (A) (A)
                 (A) (A) (A) (A) (A) (A) (A) (A) (A) (A) (A) (A)
                 (A) (A) (A) (A) (A) (A) (A) (A) (A) (A) (A) (A)
                 (A) (A) (A) (A) (A) (A) (A) (A) (A) (A) (A) (A)
                 (A) (A) (A) (A) (A) (A) (A) (A) (A) (A) (A) (A)
                 (A) (A) (A) (A) (A) (A) (A) (A) (A) (A) (A) (A)
                 (A) (A) (A) (A) (A) (A) (A) (A) (A) (A) (A) (A)
                 (A) (A) (A) (A) (A) (A) (A) (A) (A) (A) (A) (A)
                 (A) (A) (A) (A) (A) (A) (A) (A) (A) (A) (A) (A)
                 (A) (A)
 Beta  Orbitals:
       Occupied  (A) (A) (A) (A) (A) (A) (A) (A) (A) (A) (A) (A)
                 (A) (A) (A) (A) (A) (A) (A) (A) (A) (A) (A) (A)
                 (A) (A) (A) (A) (A)
       Virtual   (A) (A) (A) (A) (A) (A) (A) (A) (A) (A) (A) (A)
                 (A) (A) (A) (A) (A) (A) (A) (A) (A) (A) (A) (A)
                 (A) (A) (A) (A) (A) (A) (A) (A) (A) (A) (A) (A)
                 (A) (A) (A) (A) (A) (A) (A) (A) (A) (A) (A) (A)
                 (A) (A) (A) (A) (A) (A) (A) (A) (A) (A) (A) (A)
                 (A) (A) (A) (A) (A) (A) (A) (A) (A) (A) (A) (A)
                 (A) (A) (A) (A) (A) (A) (A) (A) (A) (A) (A) (A)
                 (A) (A) (A) (A) (A) (A) (A) (A) (A) (A) (A) (A)
                 (A) (A) (A) (A) (A) (A) (A) (A) (A) (A) (A) (A)
                 (A) (A) (A) (A) (A) (A) (A) (A) (A) (A) (A) (A)
                 (A) (A) (A) (A) (A) (A) (A) (A) (A) (A) (A) (A)
                 (A) (A) (A) (A) (A) (A) (A) (A) (A) (A) (A) (A)
                 (A) (A) (A) (A) (A) (A) (A) (A) (A) (A) (A) (A)
                 (A) (A) (A) (A) (A) (A) (A) (A) (A) (A) (A) (A)
                 (A) (A) (A) (A) (A) (A) (A) (A) (A) (A) (A) (A)
                 (A) (A) (A) (A) (A) (A) (A) (A) (A) (A) (A) (A)
                 (A) (A) (A) (A) (A) (A) (A) (A) (A) (A) (A) (A)
                 (A) (A) (A) (A) (A) (A) (A) (A) (A) (A) (A) (A)
                 (A) (A) (A) (A) (A) (A) (A) (A) (A) (A) (A) (A)
                 (A) (A) (A) (A) (A) (A) (A) (A) (A) (A) (A) (A)
                 (A) (A) (A) (A) (A) (A) (A) (A) (A) (A) (A) (A)
                 (A) (A) (A) (A) (A) (A) (A) (A) (A) (A) (A) (A)
                 (A) (A) (A) (A) (A) (A) (A) (A) (A) (A) (A) (A)
                 (A) (A) (A) (A) (A) (A) (A) (A) (A) (A) (A) (A)
                 (A) (A) (A) (A) (A) (A) (A) (A) (A) (A) (A) (A)
                 (A) (A) (A) (A) (A) (A) (A) (A) (A) (A) (A) (A)
                 (A) (A) (A) (A) (A) (A) (A) (A) (A) (A) (A) (A)
                 (A) (A) (A) (A) (A) (A) (A) (A) (A) (A) (A) (A)
                 (A) (A) (A) (A) (A) (A) (A) (A) (A) (A) (A) (A)
                 (A) (A) (A) (A) (A) (A) (A) (A) (A) (A) (A) (A)
                 (A) (A) (A)
 The electronic state is 2-A.
 Alpha  occ. eigenvalues --  -19.78627 -19.78331 -10.66044 -10.63485 -10.61873
 Alpha  occ. eigenvalues --  -10.60925 -10.60348  -1.28819  -1.01673  -0.93072
 Alpha  occ. eigenvalues --   -0.84700  -0.77726  -0.74036  -0.68258  -0.61159
 Alpha  occ. eigenvalues --   -0.56328  -0.55169  -0.53789  -0.51119  -0.50301
 Alpha  occ. eigenvalues --   -0.49171  -0.47576  -0.44400  -0.44152  -0.42065
 Alpha  occ. eigenvalues --   -0.40752  -0.40125  -0.36389  -0.36210  -0.28789
 Alpha virt. eigenvalues --    0.07419   0.09185   0.09726   0.11549   0.13997
 Alpha virt. eigenvalues --    0.14037   0.14365   0.15517   0.16015   0.16818
 Alpha virt. eigenvalues --    0.17527   0.17971   0.20511   0.22070   0.24021
 Alpha virt. eigenvalues --    0.25954   0.26745   0.27815   0.30691   0.31030
 Alpha virt. eigenvalues --    0.32492   0.33216   0.34440   0.35152   0.38330
 Alpha virt. eigenvalues --    0.39762   0.42417   0.45110   0.45613   0.46742
 Alpha virt. eigenvalues --    0.46853   0.49974   0.50816   0.51336   0.52141
 Alpha virt. eigenvalues --    0.52945   0.53109   0.53473   0.54142   0.54574
 Alpha virt. eigenvalues --    0.55366   0.56339   0.56362   0.56904   0.59047
 Alpha virt. eigenvalues --    0.60180   0.60549   0.61917   0.66562   0.67441
 Alpha virt. eigenvalues --    0.68819   0.69393   0.70845   0.72845   0.78323
 Alpha virt. eigenvalues --    0.78909   0.80593   0.81772   0.83401   0.85181
 Alpha virt. eigenvalues --    0.86673   0.89498   0.90140   0.93637   0.94935
 Alpha virt. eigenvalues --    0.96021   0.96651   0.98664   0.99473   1.02445
 Alpha virt. eigenvalues --    1.04622   1.05728   1.05927   1.07743   1.09216
 Alpha virt. eigenvalues --    1.09673   1.11469   1.12098   1.13959   1.15270
 Alpha virt. eigenvalues --    1.16532   1.17057   1.17833   1.19695   1.19891
 Alpha virt. eigenvalues --    1.20923   1.23380   1.24196   1.25804   1.27021
 Alpha virt. eigenvalues --    1.28051   1.29989   1.30721   1.31603   1.33047
 Alpha virt. eigenvalues --    1.33905   1.36790   1.38587   1.38952   1.39150
 Alpha virt. eigenvalues --    1.40699   1.41599   1.42507   1.45614   1.47257
 Alpha virt. eigenvalues --    1.48427   1.49635   1.50579   1.51815   1.52433
 Alpha virt. eigenvalues --    1.55310   1.56134   1.59293   1.61374   1.62324
 Alpha virt. eigenvalues --    1.63602   1.66563   1.67911   1.70964   1.72440
 Alpha virt. eigenvalues --    1.77150   1.79225   1.80336   1.83210   1.91530
 Alpha virt. eigenvalues --    1.98218   2.04273   2.05971   2.14591   2.21158
 Alpha virt. eigenvalues --    2.23799   2.30735   2.31904   2.37944   2.40045
 Alpha virt. eigenvalues --    2.40463   2.43384   2.44273   2.46458   2.49578
 Alpha virt. eigenvalues --    2.50606   2.52461   2.53458   2.57453   2.59348
 Alpha virt. eigenvalues --    2.62338   2.64507   2.64785   2.69347   2.70033
 Alpha virt. eigenvalues --    2.71527   2.73774   2.74243   2.80202   2.80343
 Alpha virt. eigenvalues --    2.81041   2.82082   2.86304   2.87374   2.89214
 Alpha virt. eigenvalues --    2.90123   2.92242   2.92819   2.93981   2.94314
 Alpha virt. eigenvalues --    2.96235   2.98883   3.00458   3.01781   3.03395
 Alpha virt. eigenvalues --    3.05274   3.05670   3.07761   3.09239   3.10726
 Alpha virt. eigenvalues --    3.12265   3.12979   3.13991   3.14965   3.15473
 Alpha virt. eigenvalues --    3.17848   3.18821   3.19872   3.21442   3.21808
 Alpha virt. eigenvalues --    3.23545   3.24211   3.24784   3.25015   3.27371
 Alpha virt. eigenvalues --    3.31104   3.31426   3.33132   3.36378   3.38519
 Alpha virt. eigenvalues --    3.39618   3.42275   3.42520   3.45004   3.45496
 Alpha virt. eigenvalues --    3.46761   3.48418   3.50795   3.51077   3.52547
 Alpha virt. eigenvalues --    3.54073   3.54781   3.56753   3.57455   3.59630
 Alpha virt. eigenvalues --    3.61267   3.61690   3.61970   3.63310   3.66164
 Alpha virt. eigenvalues --    3.67280   3.68946   3.70667   3.72641   3.74220
 Alpha virt. eigenvalues --    3.75837   3.79302   3.82220   3.84228   3.86606
 Alpha virt. eigenvalues --    3.88202   3.89522   3.90095   3.90927   3.92056
 Alpha virt. eigenvalues --    3.92513   3.94741   3.95462   3.96563   3.97985
 Alpha virt. eigenvalues --    3.99257   3.99980   4.03138   4.03835   4.04724
 Alpha virt. eigenvalues --    4.08020   4.09040   4.09752   4.11435   4.13381
 Alpha virt. eigenvalues --    4.15074   4.15371   4.17434   4.18789   4.19361
 Alpha virt. eigenvalues --    4.20884   4.21765   4.23259   4.23969   4.24470
 Alpha virt. eigenvalues --    4.26736   4.28146   4.29149   4.31881   4.32996
 Alpha virt. eigenvalues --    4.35686   4.36999   4.38288   4.39577   4.40851
 Alpha virt. eigenvalues --    4.42845   4.43849   4.44395   4.47451   4.49465
 Alpha virt. eigenvalues --    4.49731   4.53324   4.54135   4.59180   4.60381
 Alpha virt. eigenvalues --    4.64935   4.66842   4.69852   4.72561   4.75263
 Alpha virt. eigenvalues --    4.76090   4.80656   4.81196   4.85070   4.89226
 Alpha virt. eigenvalues --    4.93909   4.95560   4.97850   4.99367   5.00105
 Alpha virt. eigenvalues --    5.00690   5.01921   5.02714   5.03996   5.05935
 Alpha virt. eigenvalues --    5.06297   5.07597   5.11059   5.12324   5.14878
 Alpha virt. eigenvalues --    5.17788   5.21538   5.24882   5.28749   5.29497
 Alpha virt. eigenvalues --    5.32525   5.33581   5.36238   5.36787   5.38137
 Alpha virt. eigenvalues --    5.40721   5.40991   5.41737   5.44258   5.49067
 Alpha virt. eigenvalues --    5.49913   5.51003   5.52647   5.53528   5.55613
 Alpha virt. eigenvalues --    5.57953   5.59757   5.64828   5.65645   5.67629
 Alpha virt. eigenvalues --    5.70649   5.71603   5.78944   5.82559   5.95803
 Alpha virt. eigenvalues --    5.97958   6.01339   6.04662   6.05732   6.06651
 Alpha virt. eigenvalues --    6.08415   6.09371   6.12454   6.18164   6.28344
 Alpha virt. eigenvalues --    6.32235   6.42630   6.45470   6.69190   6.76539
 Alpha virt. eigenvalues --    6.77065   6.84971   6.98503   7.07920   7.08877
 Alpha virt. eigenvalues --    7.22140   7.45390   7.48572   7.62684   7.74770
 Alpha virt. eigenvalues --   10.03089  10.86694  11.93393  13.10459  13.52021
 Alpha virt. eigenvalues --   13.73621  14.00566
  Beta  occ. eigenvalues --  -19.78427 -19.76580 -10.66057 -10.62327 -10.61923
  Beta  occ. eigenvalues --  -10.60978 -10.60332  -1.26778  -0.98582  -0.91648
  Beta  occ. eigenvalues --   -0.84215  -0.77217  -0.73471  -0.66183  -0.57976
  Beta  occ. eigenvalues --   -0.55267  -0.54763  -0.52702  -0.50556  -0.49745
  Beta  occ. eigenvalues --   -0.47942  -0.44546  -0.43928  -0.43317  -0.41552
  Beta  occ. eigenvalues --   -0.40466  -0.39744  -0.34894  -0.32742
  Beta virt. eigenvalues --   -0.03752   0.07492   0.09278   0.09827   0.11646
  Beta virt. eigenvalues --    0.14064   0.14322   0.14757   0.15806   0.16116
  Beta virt. eigenvalues --    0.16972   0.17677   0.18133   0.20735   0.22457
  Beta virt. eigenvalues --    0.24578   0.26096   0.26997   0.28110   0.31172
  Beta virt. eigenvalues --    0.31354   0.32800   0.33528   0.34896   0.35904
  Beta virt. eigenvalues --    0.38588   0.40119   0.42826   0.45603   0.46026
  Beta virt. eigenvalues --    0.46935   0.47235   0.50239   0.50910   0.51731
  Beta virt. eigenvalues --    0.52357   0.53063   0.53204   0.53649   0.54529
  Beta virt. eigenvalues --    0.55225   0.56054   0.56678   0.56919   0.57999
  Beta virt. eigenvalues --    0.60196   0.60511   0.61097   0.62157   0.66825
  Beta virt. eigenvalues --    0.67947   0.69022   0.69617   0.71295   0.73296
  Beta virt. eigenvalues --    0.78523   0.79164   0.80861   0.82429   0.83501
  Beta virt. eigenvalues --    0.85504   0.86849   0.89805   0.90300   0.93839
  Beta virt. eigenvalues --    0.95213   0.96103   0.96895   0.99013   0.99661
  Beta virt. eigenvalues --    1.02735   1.04780   1.05861   1.06117   1.08053
  Beta virt. eigenvalues --    1.09316   1.10161   1.11626   1.12466   1.14236
  Beta virt. eigenvalues --    1.15492   1.16759   1.17127   1.17936   1.19834
  Beta virt. eigenvalues --    1.20125   1.21307   1.23720   1.24372   1.26061
  Beta virt. eigenvalues --    1.27148   1.28181   1.30408   1.31253   1.31888
  Beta virt. eigenvalues --    1.33500   1.34259   1.37025   1.38705   1.39084
  Beta virt. eigenvalues --    1.39357   1.40951   1.41761   1.42622   1.45794
  Beta virt. eigenvalues --    1.47750   1.48637   1.49931   1.50805   1.52327
  Beta virt. eigenvalues --    1.52628   1.55673   1.56600   1.59577   1.61791
  Beta virt. eigenvalues --    1.62700   1.63929   1.66775   1.68076   1.71254
  Beta virt. eigenvalues --    1.73062   1.77564   1.80252   1.80812   1.83731
  Beta virt. eigenvalues --    1.93430   1.98885   2.04896   2.07168   2.14921
  Beta virt. eigenvalues --    2.23155   2.24160   2.31540   2.32420   2.38081
  Beta virt. eigenvalues --    2.40172   2.40902   2.43889   2.44803   2.46970
  Beta virt. eigenvalues --    2.49778   2.51148   2.52844   2.53901   2.57711
  Beta virt. eigenvalues --    2.59987   2.62578   2.64966   2.65085   2.69807
  Beta virt. eigenvalues --    2.70438   2.71919   2.74103   2.74952   2.80385
  Beta virt. eigenvalues --    2.80743   2.81245   2.82665   2.86549   2.87580
  Beta virt. eigenvalues --    2.89381   2.90458   2.92387   2.92872   2.94158
  Beta virt. eigenvalues --    2.94394   2.96708   2.99181   3.00640   3.02113
  Beta virt. eigenvalues --    3.03599   3.05528   3.05987   3.08018   3.09418
  Beta virt. eigenvalues --    3.10952   3.12530   3.13211   3.14200   3.15061
  Beta virt. eigenvalues --    3.15627   3.18299   3.19088   3.20076   3.21541
  Beta virt. eigenvalues --    3.21881   3.23813   3.24345   3.25283   3.25403
  Beta virt. eigenvalues --    3.27616   3.31275   3.31788   3.33666   3.36799
  Beta virt. eigenvalues --    3.39183   3.40106   3.42692   3.43308   3.45209
  Beta virt. eigenvalues --    3.45934   3.47063   3.48714   3.51165   3.51507
  Beta virt. eigenvalues --    3.52897   3.54168   3.54841   3.57047   3.57672
  Beta virt. eigenvalues --    3.59700   3.61484   3.61947   3.62259   3.63526
  Beta virt. eigenvalues --    3.66466   3.67416   3.69089   3.71112   3.72770
  Beta virt. eigenvalues --    3.74633   3.76176   3.79637   3.82595   3.84447
  Beta virt. eigenvalues --    3.86849   3.88478   3.89723   3.90618   3.91115
  Beta virt. eigenvalues --    3.92394   3.92736   3.94917   3.95654   3.96782
  Beta virt. eigenvalues --    3.98333   3.99441   3.99953   4.03472   4.04141
  Beta virt. eigenvalues --    4.04876   4.08131   4.09024   4.09934   4.11630
  Beta virt. eigenvalues --    4.13563   4.15259   4.15780   4.17565   4.19080
  Beta virt. eigenvalues --    4.19698   4.21024   4.21774   4.23476   4.24146
  Beta virt. eigenvalues --    4.24734   4.27129   4.28236   4.29420   4.32097
  Beta virt. eigenvalues --    4.33148   4.35748   4.37324   4.38369   4.39880
  Beta virt. eigenvalues --    4.41459   4.43048   4.44196   4.44532   4.47686
  Beta virt. eigenvalues --    4.49838   4.49924   4.53582   4.54530   4.59473
  Beta virt. eigenvalues --    4.60741   4.65614   4.67543   4.70636   4.72906
  Beta virt. eigenvalues --    4.75691   4.76804   4.80833   4.81344   4.85306
  Beta virt. eigenvalues --    4.89839   4.94198   4.95755   4.98075   4.99524
  Beta virt. eigenvalues --    5.00233   5.00861   5.02215   5.02982   5.04188
  Beta virt. eigenvalues --    5.06097   5.06508   5.07783   5.11416   5.12514
  Beta virt. eigenvalues --    5.15386   5.18363   5.22237   5.25352   5.29048
  Beta virt. eigenvalues --    5.30105   5.32958   5.33999   5.36376   5.37112
  Beta virt. eigenvalues --    5.38271   5.40906   5.41390   5.42317   5.44615
  Beta virt. eigenvalues --    5.49220   5.50108   5.51103   5.52896   5.53684
  Beta virt. eigenvalues --    5.55793   5.58237   5.60107   5.65121   5.65814
  Beta virt. eigenvalues --    5.67793   5.71431   5.72669   5.79154   5.83063
  Beta virt. eigenvalues --    5.95888   5.98441   6.02107   6.05313   6.06358
  Beta virt. eigenvalues --    6.06940   6.08488   6.09964   6.12936   6.18723
  Beta virt. eigenvalues --    6.30274   6.32932   6.43648   6.46433   6.70065
  Beta virt. eigenvalues --    6.79095   6.80014   6.86211   7.00291   7.09472
  Beta virt. eigenvalues --    7.10373   7.24528   7.45650   7.50527   7.64369
  Beta virt. eigenvalues --    7.75740  10.04226  10.87667  11.94241  13.10572
  Beta virt. eigenvalues --   13.52023  13.73645  14.00626
          Condensed to atoms (all electrons):
               1          2          3          4          5          6
     1  C    4.879956   0.413973   0.331102  -0.033859  -0.001999  -0.003972
     2  H    0.413973   0.608276  -0.040875   0.007164  -0.001023  -0.001441
     3  C    0.331102  -0.040875   5.170300   0.402754  -0.000265   0.002857
     4  H   -0.033859   0.007164   0.402754   0.553488   0.000072  -0.000151
     5  C   -0.001999  -0.001023  -0.000265   0.000072   4.607490   0.383284
     6  H   -0.003972  -0.001441   0.002857  -0.000151   0.383284   0.715558
     7  H    0.000195   0.000002   0.000208  -0.000001   0.403569  -0.038826
     8  H    0.000102   0.000151  -0.000789   0.000016   0.416097  -0.060285
     9  O    0.000850   0.000425  -0.001372   0.000336   0.306306  -0.054888
    10  O    0.004709  -0.000216  -0.084908   0.001444  -0.039296  -0.004177
    11  H   -0.014520  -0.003723   0.248658  -0.011811   0.003454   0.004334
    12  H    0.403565  -0.040159  -0.037209  -0.005319  -0.000036   0.000195
    13  C   -0.056815  -0.003239   0.340770  -0.029824  -0.003514  -0.002462
    14  H    0.006573   0.000050  -0.033875  -0.003974   0.000020   0.000149
    15  H   -0.003801   0.003947  -0.038801   0.006645  -0.001101  -0.003013
    16  H   -0.002720  -0.000630  -0.039293  -0.004460  -0.000032  -0.000177
    17  C    0.341457  -0.034299  -0.050233  -0.003505   0.000048   0.000531
    18  H   -0.037658   0.007387  -0.004426   0.003406  -0.000010   0.000001
    19  H   -0.034956  -0.005337   0.007611  -0.000188   0.000004   0.000029
    20  H   -0.036332  -0.005184  -0.002708   0.000175   0.000092  -0.000345
               7          8          9         10         11         12
     1  C    0.000195   0.000102   0.000850   0.004709  -0.014520   0.403565
     2  H    0.000002   0.000151   0.000425  -0.000216  -0.003723  -0.040159
     3  C    0.000208  -0.000789  -0.001372  -0.084908   0.248658  -0.037209
     4  H   -0.000001   0.000016   0.000336   0.001444  -0.011811  -0.005319
     5  C    0.403569   0.416097   0.306306  -0.039296   0.003454  -0.000036
     6  H   -0.038826  -0.060285  -0.054888  -0.004177   0.004334   0.000195
     7  H    0.581031  -0.027202  -0.025558   0.006606  -0.001239   0.000010
     8  H   -0.027202   0.607804  -0.038334   0.004623   0.000709  -0.000009
     9  O   -0.025558  -0.038334   7.945032   0.064262  -0.028003  -0.000024
    10  O    0.006606   0.004623   0.064262   8.087872   0.173262  -0.000092
    11  H   -0.001239   0.000709  -0.028003   0.173262   0.442960   0.002693
    12  H    0.000010  -0.000009  -0.000024  -0.000092   0.002693   0.611858
    13  C   -0.000028   0.000597   0.006743  -0.002845  -0.014691  -0.001171
    14  H   -0.000085   0.000019   0.001816   0.001256  -0.002532  -0.000388
    15  H    0.000227   0.000140   0.001203   0.000446  -0.005518  -0.000646
    16  H   -0.000011   0.000018   0.000473  -0.000369   0.003700   0.003636
    17  C   -0.000022  -0.000184  -0.000020  -0.002844  -0.000596  -0.033375
    18  H    0.000000  -0.000001   0.000002   0.000024  -0.000689  -0.005245
    19  H   -0.000000  -0.000001  -0.000005   0.000017   0.000257  -0.004579
    20  H    0.000063   0.000368  -0.000315   0.008057  -0.000818   0.006944
              13         14         15         16         17         18
     1  C   -0.056815   0.006573  -0.003801  -0.002720   0.341457  -0.037658
     2  H   -0.003239   0.000050   0.003947  -0.000630  -0.034299   0.007387
     3  C    0.340770  -0.033875  -0.038801  -0.039293  -0.050233  -0.004426
     4  H   -0.029824  -0.003974   0.006645  -0.004460  -0.003505   0.003406
     5  C   -0.003514   0.000020  -0.001101  -0.000032   0.000048  -0.000010
     6  H   -0.002462   0.000149  -0.003013  -0.000177   0.000531   0.000001
     7  H   -0.000028  -0.000085   0.000227  -0.000011  -0.000022   0.000000
     8  H    0.000597   0.000019   0.000140   0.000018  -0.000184  -0.000001
     9  O    0.006743   0.001816   0.001203   0.000473  -0.000020   0.000002
    10  O   -0.002845   0.001256   0.000446  -0.000369  -0.002844   0.000024
    11  H   -0.014691  -0.002532  -0.005518   0.003700  -0.000596  -0.000689
    12  H   -0.001171  -0.000388  -0.000646   0.003636  -0.033375  -0.005245
    13  C    4.837402   0.412384   0.407571   0.400139   0.005484   0.000064
    14  H    0.412384   0.551254  -0.025530  -0.029407  -0.000321   0.000002
    15  H    0.407571  -0.025530   0.597404  -0.036130   0.000096  -0.000011
    16  H    0.400139  -0.029407  -0.036130   0.602479  -0.000197  -0.000003
    17  C    0.005484  -0.000321   0.000096  -0.000197   4.857296   0.409324
    18  H    0.000064   0.000002  -0.000011  -0.000003   0.409324   0.596457
    19  H   -0.000382   0.000017  -0.000011   0.000015   0.411181  -0.030955
    20  H    0.000299  -0.000016   0.000012  -0.000009   0.408591  -0.030522
              19         20
     1  C   -0.034956  -0.036332
     2  H   -0.005337  -0.005184
     3  C    0.007611  -0.002708
     4  H   -0.000188   0.000175
     5  C    0.000004   0.000092
     6  H    0.000029  -0.000345
     7  H   -0.000000   0.000063
     8  H   -0.000001   0.000368
     9  O   -0.000005  -0.000315
    10  O    0.000017   0.008057
    11  H    0.000257  -0.000818
    12  H   -0.004579   0.006944
    13  C   -0.000382   0.000299
    14  H    0.000017  -0.000016
    15  H   -0.000011   0.000012
    16  H    0.000015  -0.000009
    17  C    0.411181   0.408591
    18  H   -0.030955  -0.030522
    19  H    0.583957  -0.029122
    20  H   -0.029122   0.574171
          Atomic-Atomic Spin Densities.
               1          2          3          4          5          6
     1  C   -0.024272   0.002956  -0.024234   0.004116  -0.000318   0.001502
     2  H    0.002956   0.007515  -0.004365   0.000275  -0.000284   0.001656
     3  C   -0.024234  -0.004365   0.641211   0.003200   0.001666  -0.006593
     4  H    0.004116   0.000275   0.003200  -0.019417  -0.000064   0.000223
     5  C   -0.000318  -0.000284   0.001666  -0.000064  -0.006690   0.002247
     6  H    0.001502   0.001656  -0.006593   0.000223   0.002247   0.005540
     7  H   -0.000019  -0.000010   0.000106  -0.000003   0.000513  -0.000782
     8  H   -0.000213  -0.000176   0.001260  -0.000033  -0.001896  -0.001982
     9  O   -0.000932  -0.000356   0.014153  -0.000464   0.002236  -0.001879
    10  O    0.006345   0.001272  -0.089314   0.003503  -0.003461   0.005268
    11  H   -0.004395  -0.000687   0.075125   0.001729   0.001562  -0.004630
    12  H    0.002859  -0.005259  -0.012159  -0.002238   0.000064  -0.000395
    13  C    0.004447   0.001001  -0.018533   0.003131  -0.000644   0.001296
    14  H    0.000297   0.000106  -0.003986   0.000992  -0.000109   0.000248
    15  H    0.000947   0.000650  -0.004373   0.000196  -0.000652   0.001543
    16  H   -0.001136  -0.000967  -0.014871  -0.002740   0.000128  -0.000390
    17  C    0.006051   0.001602  -0.004956   0.000493   0.000015   0.000259
    18  H    0.000837   0.000083  -0.000274   0.000163   0.000000   0.000007
    19  H    0.000355  -0.000022   0.000063  -0.000030   0.000001  -0.000023
    20  H   -0.001435  -0.000625   0.003219  -0.000437  -0.000077  -0.000140
               7          8          9         10         11         12
     1  C   -0.000019  -0.000213  -0.000932   0.006345  -0.004395   0.002859
     2  H   -0.000010  -0.000176  -0.000356   0.001272  -0.000687  -0.005259
     3  C    0.000106   0.001260   0.014153  -0.089314   0.075125  -0.012159
     4  H   -0.000003  -0.000033  -0.000464   0.003503   0.001729  -0.002238
     5  C    0.000513  -0.001896   0.002236  -0.003461   0.001562   0.000064
     6  H   -0.000782  -0.001982  -0.001879   0.005268  -0.004630  -0.000395
     7  H   -0.001886   0.000861   0.000200  -0.000212   0.000147   0.000001
     8  H    0.000861   0.004306  -0.000771  -0.000118   0.001508   0.000024
     9  O    0.000200  -0.000771   0.068763  -0.049858   0.011741   0.000086
    10  O   -0.000212  -0.000118  -0.049858   0.630491  -0.061776  -0.000638
    11  H    0.000147   0.001508   0.011741  -0.061776  -0.093009   0.000760
    12  H    0.000001   0.000024   0.000086  -0.000638   0.000760   0.051698
    13  C   -0.000051  -0.000157  -0.002702   0.006343  -0.000481  -0.000897
    14  H   -0.000006  -0.000032  -0.001096   0.001440  -0.000999  -0.000219
    15  H   -0.000050  -0.000138  -0.001665   0.001355  -0.000413  -0.000674
    16  H    0.000008   0.000020   0.000432  -0.000900   0.001147   0.004044
    17  C    0.000000  -0.000036  -0.000072   0.001317  -0.001434  -0.003341
    18  H   -0.000000  -0.000001  -0.000003   0.000074  -0.000115  -0.000597
    19  H    0.000000   0.000003   0.000002  -0.000021   0.000032   0.000391
    20  H   -0.000005   0.000048   0.000118  -0.001966   0.001913   0.000792
              13         14         15         16         17         18
     1  C    0.004447   0.000297   0.000947  -0.001136   0.006051   0.000837
     2  H    0.001001   0.000106   0.000650  -0.000967   0.001602   0.000083
     3  C   -0.018533  -0.003986  -0.004373  -0.014871  -0.004956  -0.000274
     4  H    0.003131   0.000992   0.000196  -0.002740   0.000493   0.000163
     5  C   -0.000644  -0.000109  -0.000652   0.000128   0.000015   0.000000
     6  H    0.001296   0.000248   0.001543  -0.000390   0.000259   0.000007
     7  H   -0.000051  -0.000006  -0.000050   0.000008   0.000000  -0.000000
     8  H   -0.000157  -0.000032  -0.000138   0.000020  -0.000036  -0.000001
     9  O   -0.002702  -0.001096  -0.001665   0.000432  -0.000072  -0.000003
    10  O    0.006343   0.001440   0.001355  -0.000900   0.001317   0.000074
    11  H   -0.000481  -0.000999  -0.000413   0.001147  -0.001434  -0.000115
    12  H   -0.000897  -0.000219  -0.000674   0.004044  -0.003341  -0.000597
    13  C   -0.031965   0.004050   0.003868   0.002459   0.000213   0.000026
    14  H    0.004050   0.007506   0.001396  -0.005147   0.000021   0.000003
    15  H    0.003868   0.001396   0.009285  -0.005866   0.000066   0.000004
    16  H    0.002459  -0.005147  -0.005866   0.064151  -0.000154  -0.000020
    17  C    0.000213   0.000021   0.000066  -0.000154   0.005548   0.000044
    18  H    0.000026   0.000003   0.000004  -0.000020   0.000044  -0.000510
    19  H    0.000000  -0.000001  -0.000002   0.000007  -0.000252   0.000054
    20  H   -0.000162  -0.000012  -0.000036   0.000049  -0.000615  -0.000258
              19         20
     1  C    0.000355  -0.001435
     2  H   -0.000022  -0.000625
     3  C    0.000063   0.003219
     4  H   -0.000030  -0.000437
     5  C    0.000001  -0.000077
     6  H   -0.000023  -0.000140
     7  H    0.000000  -0.000005
     8  H    0.000003   0.000048
     9  O    0.000002   0.000118
    10  O   -0.000021  -0.001966
    11  H    0.000032   0.001913
    12  H    0.000391   0.000792
    13  C    0.000000  -0.000162
    14  H   -0.000001  -0.000012
    15  H   -0.000002  -0.000036
    16  H    0.000007   0.000049
    17  C   -0.000252  -0.000615
    18  H    0.000054  -0.000258
    19  H   -0.001809   0.000335
    20  H    0.000335  -0.000146
 Mulliken charges and spin densities:
               1          2
     1  C   -0.155850  -0.026243
     2  H    0.094750   0.004366
     3  C   -0.169506   0.556346
     4  H    0.117593  -0.007405
     5  C   -0.073159  -0.005764
     6  H    0.062801   0.002975
     7  H    0.101061  -0.001186
     8  H    0.096162   0.002477
     9  O   -0.178928   0.037931
    10  O   -0.217829   0.449145
    11  H    0.204115  -0.072275
    12  H    0.099352   0.034304
    13  C   -0.296481  -0.028757
    14  H    0.122587   0.004453
    15  H    0.096872   0.005442
    16  H    0.102978   0.040255
    17  C   -0.308413   0.004770
    18  H    0.092853  -0.000482
    19  H    0.102447  -0.000913
    20  H    0.106596   0.000560
 Sum of Mulliken charges =  -0.00000   1.00000
 Mulliken charges and spin densities with hydrogens summed into heavy atoms:
               1          2
     1  C    0.038251   0.012427
     3  C   -0.051913   0.548941
     5  C    0.186864  -0.001498
     9  O   -0.178928   0.037931
    10  O   -0.013714   0.376870
    13  C    0.025956   0.021393
    17  C   -0.006517   0.003935
 APT charges:
               1
     1  C   -0.009812
     2  H   -0.033292
     3  C    0.492661
     4  H   -0.085530
     5  C    0.419352
     6  H   -0.034363
     7  H   -0.005132
     8  H   -0.028105
     9  O   -0.447036
    10  O    0.187133
    11  H   -0.358430
    12  H   -0.051294
    13  C   -0.065246
    14  H    0.004043
    15  H   -0.002726
    16  H   -0.004670
    17  C    0.072430
    18  H   -0.020289
    19  H   -0.028511
    20  H   -0.001183
 Sum of APT charges =  -0.00000
 APT charges with hydrogens summed into heavy atoms:
               1
     1  C   -0.094398
     3  C    0.407131
     5  C    0.351752
     9  O   -0.447036
    10  O   -0.171297
    13  C   -0.068598
    17  C    0.022447
 Electronic spatial extent (au):  <R**2>=           1089.2459
 Charge=             -0.0000 electrons
 Dipole moment (field-independent basis, Debye):
    X=              1.2890    Y=              0.4735    Z=              2.0593  Tot=              2.4751
 Quadrupole moment (field-independent basis, Debye-Ang):
   XX=            -45.3045   YY=            -45.8742   ZZ=            -46.6155
   XY=              1.3493   XZ=             -4.6793   YZ=             -1.7324
 Traceless Quadrupole moment (field-independent basis, Debye-Ang):
   XX=              0.6269   YY=              0.0572   ZZ=             -0.6841
   XY=              1.3493   XZ=             -4.6793   YZ=             -1.7324
 Octapole moment (field-independent basis, Debye-Ang**2):
  XXX=            -14.5486  YYY=             -1.7392  ZZZ=             -3.0895  XYY=             -5.3805
  XXY=             -2.8253  XXZ=              7.2662  XZZ=             -3.5669  YZZ=              0.2528
  YYZ=             -1.1654  XYZ=              1.0534
 Hexadecapole moment (field-independent basis, Debye-Ang**3):
 XXXX=           -834.1105 YYYY=           -414.2226 ZZZZ=           -190.5857 XXXY=             12.9440
 XXXZ=            -16.0650 YYYX=             10.1873 YYYZ=             -1.4791 ZZZX=             -1.3242
 ZZZY=             -1.5091 XXYY=           -206.1765 XXZZ=           -167.5823 YYZZ=           -100.9078
 XXYZ=             -2.2883 YYXZ=              3.3510 ZZXY=             -0.7975
 N-N= 3.329517963194D+02 E-N=-1.479508606771D+03  KE= 3.465708725859D+02
  Exact polarizability: 103.258   9.128  79.604  -1.760   1.412  67.519
 Approx polarizability:  96.318   6.603  81.786  -0.252   3.509  80.191
                          Isotropic Fermi Contact Couplings
        Atom                 a.u.       MegaHertz       Gauss      10(-4) cm-1
     1  C(13)             -0.00980     -11.01845      -3.93166      -3.67536
     2  H(1)               0.00217       9.67991       3.45403       3.22887
     3  C(13)              0.08562      96.25269      34.34535      32.10644
     4  H(1)              -0.00236     -10.53126      -3.75782      -3.51285
     5  C(13)             -0.00446      -5.01548      -1.78965      -1.67299
     6  H(1)               0.00225      10.06814       3.59256       3.35837
     7  H(1)              -0.00022      -0.98420      -0.35119      -0.32829
     8  H(1)               0.00075       3.36190       1.19961       1.12141
     9  O(17)              0.01690     -10.24503      -3.65568      -3.41737
    10  O(17)              0.05732     -34.74699     -12.39859     -11.59035
    11  H(1)              -0.01858     -83.06160     -29.63845     -27.70637
    12  H(1)               0.01550      69.27767      24.72000      23.10854
    13  C(13)             -0.00821      -9.23312      -3.29461      -3.07984
    14  H(1)               0.00317      14.16952       5.05604       4.72644
    15  H(1)               0.00344      15.38238       5.48882       5.13101
    16  H(1)               0.01866      83.41157      29.76332      27.82310
    17  C(13)              0.00473       5.31431       1.89628       1.77266
    18  H(1)              -0.00021      -0.94186      -0.33608      -0.31417
    19  H(1)              -0.00035      -1.57576      -0.56227      -0.52562
    20  H(1)              -0.00018      -0.80320      -0.28660      -0.26792
 --------------------------------------------------------
       Center         ----  Spin Dipole Couplings  ----
                      3XX-RR        3YY-RR        3ZZ-RR
 --------------------------------------------------------
     1   Atom        0.009334     -0.011579      0.002245
     2   Atom       -0.004325     -0.004107      0.008432
     3   Atom        0.250277      0.033371     -0.283648
     4   Atom       -0.004475     -0.025787      0.030262
     5   Atom       -0.000985     -0.005985      0.006970
     6   Atom       -0.003188     -0.005129      0.008318
     7   Atom        0.000826     -0.003673      0.002847
     8   Atom       -0.000881     -0.001290      0.002171
     9   Atom        0.211349     -0.051944     -0.159404
    10   Atom        0.412575      0.185877     -0.598452
    11   Atom        0.110235     -0.012903     -0.097332
    12   Atom        0.003921     -0.002362     -0.001558
    13   Atom       -0.009215      0.019183     -0.009967
    14   Atom       -0.001478      0.009011     -0.007532
    15   Atom       -0.002084     -0.000913      0.002997
    16   Atom       -0.001603      0.006303     -0.004699
    17   Atom        0.000597      0.005074     -0.005671
    18   Atom        0.003292      0.000276     -0.003567
    19   Atom        0.000690      0.001226     -0.001917
    20   Atom       -0.000270      0.005663     -0.005393
 --------------------------------------------------------
                        XY            XZ            YZ
 --------------------------------------------------------
     1   Atom       -0.003891      0.021603     -0.003718
     2   Atom       -0.000100      0.004738     -0.005642
     3   Atom        0.466149      0.174143      0.139093
     4   Atom        0.021368     -0.022363     -0.000305
     5   Atom        0.000644     -0.006765     -0.003397
     6   Atom        0.001694     -0.002977     -0.002050
     7   Atom        0.000520     -0.004953      0.000125
     8   Atom        0.003599     -0.005020     -0.005112
     9   Atom        0.321965      0.172155      0.090316
    10   Atom        1.251267      0.709766      0.642974
    11   Atom        0.154028      0.067456      0.049194
    12   Atom        0.001084      0.006989     -0.001626
    13   Atom        0.003912      0.001160      0.014526
    14   Atom       -0.006198      0.001185     -0.001443
    15   Atom       -0.002804     -0.005029      0.008219
    16   Atom        0.002182      0.000802      0.005219
    17   Atom       -0.009250      0.000500      0.001224
    18   Atom       -0.004729     -0.001230      0.001470
    19   Atom       -0.002868      0.001688     -0.001347
    20   Atom       -0.004971      0.001860     -0.001173
 --------------------------------------------------------


 ---------------------------------------------------------------------------------
              Anisotropic Spin Dipole Couplings in Principal Axis System
 ---------------------------------------------------------------------------------

       Atom             a.u.   MegaHertz   Gauss  10(-4) cm-1        Axes

              Baa    -0.0161    -2.164    -0.772    -0.722 -0.6376  0.0807  0.7661
     1 C(13)  Bbb    -0.0123    -1.647    -0.588    -0.549  0.1539  0.9878  0.0240
              Bcc     0.0284     3.811     1.360     1.271  0.7548 -0.1332  0.6423
 
              Baa    -0.0075    -4.005    -1.429    -1.336 -0.6032  0.6784  0.4194
     2 H(1)   Bbb    -0.0043    -2.311    -0.825    -0.771  0.7512  0.6600  0.0129
              Bcc     0.0118     6.316     2.254     2.107  0.2681 -0.3229  0.9077
 
              Baa    -0.3370   -45.228   -16.138   -15.086 -0.5006  0.7749 -0.3860
     3 C(13)  Bbb    -0.3353   -44.999   -16.057   -15.010 -0.4097  0.1807  0.8941
              Bcc     0.6724    90.227    32.195    30.096  0.7626  0.6057  0.2270
 
              Baa    -0.0411   -21.918    -7.821    -7.311 -0.5745  0.7992 -0.1767
     4 H(1)   Bbb    -0.0016    -0.871    -0.311    -0.290  0.6637  0.5812  0.4709
              Bcc     0.0427    22.789     8.132     7.601 -0.4790 -0.1533  0.8643
 
              Baa    -0.0071    -0.958    -0.342    -0.319  0.2997  0.8848  0.3568
     5 C(13)  Bbb    -0.0043    -0.579    -0.207    -0.193  0.8263 -0.4277  0.3665
              Bcc     0.0115     1.537     0.548     0.513 -0.4769 -0.1850  0.8593
 
              Baa    -0.0061    -3.264    -1.165    -1.089 -0.4810  0.8764  0.0253
     6 H(1)   Bbb    -0.0033    -1.771    -0.632    -0.591  0.8412  0.4532  0.2950
              Bcc     0.0094     5.036     1.797     1.680 -0.2471 -0.1632  0.9552
 
              Baa    -0.0040    -2.125    -0.758    -0.709 -0.4249  0.8454 -0.3237
     7 H(1)   Bbb    -0.0029    -1.555    -0.555    -0.519  0.6470  0.5337  0.5446
              Bcc     0.0069     3.680     1.313     1.228 -0.6331 -0.0220  0.7737
 
              Baa    -0.0050    -2.645    -0.944    -0.882  0.0020  0.8120  0.5837
     8 H(1)   Bbb    -0.0046    -2.429    -0.867    -0.810  0.8596 -0.2997  0.4139
              Bcc     0.0095     5.074     1.810     1.692 -0.5110 -0.5009  0.6985
 
              Baa    -0.2752    19.911     7.105     6.642 -0.5988  0.7356  0.3166
     9 O(17)  Bbb    -0.2103    15.220     5.431     5.077 -0.0444 -0.4252  0.9040
              Bcc     0.4855   -35.131   -12.536   -11.719  0.7996  0.5273  0.2873
 
              Baa    -0.9645    69.794    24.904    23.281 -0.5383  0.1192  0.8343
    10 O(17)  Bbb    -0.9553    69.123    24.665    23.057 -0.4832  0.7674 -0.4215
              Bcc     1.9198  -138.917   -49.569   -46.338  0.6904  0.6300  0.3555
 
              Baa    -0.1206   -64.347   -22.961   -21.464  0.2051 -0.6340  0.7457
    11 H(1)   Bbb    -0.1149   -61.286   -21.868   -20.443 -0.5610  0.5481  0.6204
              Bcc     0.2355   125.633    44.829    41.907  0.8020  0.5455  0.2432
 
              Baa    -0.0071    -3.803    -1.357    -1.268 -0.5210  0.3794  0.7646
    12 H(1)   Bbb    -0.0016    -0.833    -0.297    -0.278  0.2153  0.9252 -0.3124
              Bcc     0.0087     4.636     1.654     1.546  0.8260 -0.0019  0.5637
 
              Baa    -0.0160    -2.147    -0.766    -0.716  0.0659 -0.3871  0.9197
    13 C(13)  Bbb    -0.0097    -1.296    -0.463    -0.432  0.9911 -0.0814 -0.1053
              Bcc     0.0257     3.443     1.229     1.148  0.1156  0.9185  0.3783
 
              Baa    -0.0078    -4.142    -1.478    -1.382 -0.1611  0.0254  0.9866
    14 H(1)   Bbb    -0.0043    -2.289    -0.817    -0.763  0.8925  0.4305  0.1347
              Bcc     0.0121     6.431     2.295     2.145 -0.4214  0.9022 -0.0920
 
              Baa    -0.0076    -4.074    -1.454    -1.359 -0.2419  0.7090 -0.6624
    15 H(1)   Bbb    -0.0042    -2.233    -0.797    -0.745  0.8931  0.4296  0.1336
              Bcc     0.0118     6.307     2.251     2.104 -0.3793  0.5593  0.7371
 
              Baa    -0.0068    -3.619    -1.291    -1.207  0.0132 -0.3724  0.9280
    16 H(1)   Bbb    -0.0021    -1.129    -0.403    -0.377  0.9763 -0.1957 -0.0924
              Bcc     0.0089     4.748     1.694     1.584  0.2161  0.9072  0.3609
 
              Baa    -0.0074    -0.998    -0.356    -0.333  0.6450  0.5306 -0.5500
    17 C(13)  Bbb    -0.0049    -0.663    -0.236    -0.221  0.4520  0.3155  0.8344
              Bcc     0.0124     1.661     0.593     0.554 -0.6162  0.7867  0.0363
 
              Baa    -0.0041    -2.195    -0.783    -0.732 -0.1356 -0.4429  0.8862
    18 H(1)   Bbb    -0.0030    -1.579    -0.563    -0.527  0.5970  0.6774  0.4299
              Bcc     0.0071     3.774     1.347     1.259  0.7907 -0.5874 -0.1725
 
              Baa    -0.0027    -1.466    -0.523    -0.489 -0.4630 -0.0338  0.8857
    19 H(1)   Bbb    -0.0018    -0.959    -0.342    -0.320  0.6010  0.7225  0.3418
              Bcc     0.0045     2.425     0.865     0.809 -0.6514  0.6906 -0.3142
 
              Baa    -0.0060    -3.212    -1.146    -1.071 -0.3501 -0.0551  0.9351
    20 H(1)   Bbb    -0.0027    -1.458    -0.520    -0.486  0.7924  0.5149  0.3270
              Bcc     0.0088     4.670     1.666     1.558 -0.4995  0.8555 -0.1366
 

 ---------------------------------------------------------------------------------

 Calling FoFJK, ICntrl=  10100127 FMM=F ISym2X=0 I1Cent= 0 IOpClX= 1 NMat=1 NMatS=1 NMatT=0.
 ***** Axes restored to original set *****
 -------------------------------------------------------------------
 Center     Atomic                   Forces (Hartrees/Bohr)
 Number     Number              X              Y              Z
 -------------------------------------------------------------------
      1        6           0.000082061    0.000694506    0.000516518
      2        1           0.000484734    0.000000612   -0.000399276
      3        6          -0.001437537   -0.001704540   -0.001620124
      4        1           0.000038365    0.000335554    0.000602166
      5        6           0.000360662   -0.002872265    0.004913448
      6        1          -0.001481606   -0.000492451    0.000102495
      7        1           0.000285294   -0.000096457   -0.000427955
      8        1           0.000017322    0.000478484    0.000552064
      9        8          -0.011237744    0.007776018    0.002040332
     10        8           0.006873934   -0.007526071   -0.007590771
     11        1           0.004845285    0.003327950    0.001195040
     12        1          -0.000007187   -0.000329750    0.000108585
     13        6          -0.000144545    0.000664592    0.000477483
     14        1           0.000431734    0.000065264    0.000479582
     15        1           0.000602812    0.000724733   -0.000800700
     16        1          -0.000419216    0.000008819   -0.000096337
     17        6           0.000030270   -0.000915241   -0.000385117
     18        1          -0.000109512   -0.000340895    0.000384921
     19        1          -0.000063370    0.000013534   -0.000223904
     20        1           0.000848244    0.000187606    0.000171548
 -------------------------------------------------------------------
 Cartesian Forces:  Max     0.011237744 RMS     0.002703267
 FormGI is forming the generalized inverse of G from B-inverse, IUseBI=4.

 GradGradGradGradGradGradGradGradGradGradGradGradGradGradGradGradGradGrad
 Berny optimization.
 Internal  Forces:  Max     0.014661196 RMS     0.002082345
 Search for a saddle point.
 Step number   1 out of a maximum of  120
 All quantities printed in internal units (Hartrees-Bohrs-Radians)
 Swapping is turned off.
 Second derivative matrix not updated -- analytic derivatives used.
 ITU=  0
     Eigenvalues ---   -0.07325   0.00102   0.00242   0.00257   0.00313
     Eigenvalues ---    0.00634   0.01931   0.02380   0.02628   0.03521
     Eigenvalues ---    0.03852   0.04368   0.04434   0.04480   0.04583
     Eigenvalues ---    0.04677   0.05648   0.06710   0.06925   0.08497
     Eigenvalues ---    0.08533   0.09479   0.10922   0.11515   0.12141
     Eigenvalues ---    0.12348   0.13319   0.13840   0.14381   0.16088
     Eigenvalues ---    0.16222   0.16776   0.17513   0.18552   0.20988
     Eigenvalues ---    0.22452   0.28128   0.29174   0.30359   0.31422
     Eigenvalues ---    0.32231   0.32608   0.32807   0.33407   0.33526
     Eigenvalues ---    0.33650   0.33815   0.33906   0.33985   0.34516
     Eigenvalues ---    0.34672   0.34806   0.36243   0.44069
 Eigenvectors required to have negative eigenvalues:
                          R13       R6        R12       D25       A20
   1                   -0.71422   0.64336   0.15230  -0.05954  -0.05787
                          D7        D4        D23       D3        D27
   1                    0.05753   0.05415   0.05384  -0.05300  -0.05083
 RFO step:  Lambda0=9.368201900D-05 Lambda=-1.19275262D-03.
 Linear search not attempted -- option 19 set.
 Iteration  1 RMS(Cart)=  0.04793171 RMS(Int)=  0.00052636
 Iteration  2 RMS(Cart)=  0.00088788 RMS(Int)=  0.00003493
 Iteration  3 RMS(Cart)=  0.00000079 RMS(Int)=  0.00003493
 Variable       Old X    -DE/DX   Delta X   Delta X   Delta X     New X
                                 (Linear)    (Quad)   (Total)
    R1        2.06583  -0.00059   0.00000  -0.00158  -0.00158   2.06425
    R2        2.84584   0.00117   0.00000   0.00012   0.00012   2.84596
    R3        2.07357  -0.00016   0.00000  -0.00011  -0.00011   2.07345
    R4        2.87977   0.00116   0.00000   0.00333   0.00333   2.88311
    R5        2.06148  -0.00047   0.00000  -0.00176  -0.00176   2.05972
    R6        2.50834  -0.00032   0.00000   0.01975   0.01975   2.52808
    R7        2.83854   0.00100   0.00000   0.00105   0.00105   2.83959
    R8        2.06541  -0.00126   0.00000  -0.00335  -0.00335   2.06206
    R9        2.05695  -0.00046   0.00000  -0.00065  -0.00065   2.05631
   R10        2.05973  -0.00053   0.00000  -0.00220  -0.00220   2.05753
   R11        2.66930   0.00596   0.00000   0.01357   0.01357   2.68287
   R12        2.60958   0.01466   0.00000   0.04887   0.04887   2.65845
   R13        2.26138   0.00579   0.00000  -0.01336  -0.01336   2.24801
   R14        2.05740  -0.00057   0.00000  -0.00147  -0.00147   2.05592
   R15        2.06203  -0.00113   0.00000  -0.00275  -0.00275   2.05928
   R16        2.06999  -0.00030   0.00000  -0.00066  -0.00066   2.06933
   R17        2.06105  -0.00043   0.00000  -0.00126  -0.00126   2.05979
   R18        2.05787  -0.00019   0.00000  -0.00051  -0.00051   2.05736
   R19        2.06030  -0.00081   0.00000  -0.00254  -0.00254   2.05776
    A1        1.90826  -0.00024   0.00000   0.00011   0.00010   1.90837
    A2        1.84779   0.00011   0.00000  -0.00133  -0.00134   1.84645
    A3        1.92263  -0.00036   0.00000  -0.00120  -0.00121   1.92142
    A4        1.89347  -0.00013   0.00000  -0.00139  -0.00138   1.89209
    A5        1.97092   0.00110   0.00000   0.00708   0.00708   1.97800
    A6        1.91648  -0.00055   0.00000  -0.00382  -0.00382   1.91266
    A7        1.97738   0.00016   0.00000   0.00246   0.00236   1.97974
    A8        1.84995  -0.00011   0.00000  -0.00219  -0.00220   1.84775
    A9        2.04847  -0.00009   0.00000   0.00289   0.00292   2.05139
   A10        1.73848  -0.00013   0.00000  -0.00304  -0.00304   1.73543
   A11        1.99086  -0.00050   0.00000  -0.00107  -0.00101   1.98985
   A12        1.81407   0.00078   0.00000  -0.00078  -0.00077   1.81330
   A13        1.91880  -0.00041   0.00000  -0.00184  -0.00183   1.91696
   A14        1.91415  -0.00052   0.00000   0.00150   0.00146   1.91562
   A15        1.92835   0.00146   0.00000   0.00827   0.00825   1.93660
   A16        1.92614  -0.00029   0.00000  -0.00202  -0.00203   1.92411
   A17        1.84788  -0.00086   0.00000  -0.00962  -0.00962   1.83826
   A18        1.92775   0.00062   0.00000   0.00342   0.00340   1.93115
   A19        1.88838   0.00200   0.00000  -0.00633  -0.00633   1.88205
   A20        1.81458   0.00674   0.00000   0.00749   0.00749   1.82208
   A21        1.94859   0.00018   0.00000   0.00023   0.00023   1.94882
[...]
 96,0.05071598,0.11667468,0.00000653,0.00000307,-0.00028798,0.00001512,
 -0.00007452,0.00016991,-0.00014431,-0.00006168,-0.00024554,-0.00000532
 ,0.00001298,0.00006093,-0.05997264,-0.03963947,-0.01126510,-0.00374189
 ,-0.02669842,-0.00693425,0.00593143,0.02493262,0.00433313,0.05529526,-
 0.00029496,-0.00031118,-0.00002170,0.00000626,0.00001253,-0.00000589,0
 .00147793,0.00101593,0.00075306,-0.00025411,-0.00017001,-0.00011671,-0
 .04155063,-0.29325348,-0.05574029,0.00029803,-0.00246202,-0.00205128,-
 0.00255739,-0.00919503,-0.00289997,0.04518549,0.32320587,0.00014751,0.
 00015146,-0.00018811,0.00000587,-0.00006871,0.00012360,-0.00052876,-0.
 00049376,-0.00033554,0.00009210,0.00009291,0.00007504,-0.00979900,-0.0
 6403494,-0.06100646,-0.00193602,-0.01662267,-0.00144217,-0.00397670,-0
 .01298962,-0.00158393,0.01047559,0.05093329,0.06860234,-0.00494095,-0.
 00445982,-0.00038151,0.00017099,0.00037371,-0.00039839,0.02164443,0.01
 807248,0.00863086,-0.00327297,-0.00230800,-0.00142972,-0.06903864,0.00
 400581,0.00205740,0.00718748,0.01712550,-0.02065995,-0.00463456,-0.014
 40164,0.02692979,0.00154425,-0.00321205,0.00945087,0.22860897,0.002754
 29,0.00235364,0.00048564,-0.00009948,-0.00027436,0.00019817,-0.0153800
 1,-0.01224592,-0.00661940,0.00188114,0.00164676,0.00063831,0.02039498,
 -0.13042683,0.06801142,0.00335921,0.00176132,0.00783438,0.00168978,0.0
 0698658,-0.01296399,-0.00212239,-0.02070906,0.04179981,-0.08055165,0.2
 1381501,0.00427610,0.00443398,-0.00027925,-0.00020613,-0.00039561,0.00
 081469,-0.02258300,-0.01729257,-0.00980208,0.00300660,0.00238644,0.001
 60483,-0.02145313,0.09100640,-0.15938464,0.00227017,0.01986644,-0.0362
 3515,0.00406462,0.00858225,-0.01818885,0.00541981,0.01217993,-0.008797
 15,-0.08418430,-0.09011384,0.30888977,0.01205981,0.00752997,0.00339126
 ,-0.00008592,-0.00045001,0.00010530,-0.11237832,-0.08691397,-0.0430382
 2,0.00917330,0.00730035,0.00407255,-0.02308986,0.00364914,0.02960335,0
 .00289411,0.00130965,-0.00557996,0.00267734,-0.00273655,0.00297582,0.0
 0128603,0.00312899,-0.00498647,-0.11747226,0.04455170,0.06944079,0.131
 71753,0.00097492,-0.00141453,0.00134754,0.00009485,0.00023472,-0.00080
 518,-0.04321855,-0.02703549,-0.01406309,0.00160712,0.00096612,0.001018
 75,-0.00982826,0.01048152,0.00258987,-0.00014907,-0.00058531,0.0000348
 7,-0.00211312,0.00060136,0.00323975,-0.00182827,0.00320560,0.00094452,
 0.07558639,-0.08799655,-0.05583928,-0.03472997,0.12653300,-0.00161162,
 -0.00303580,0.00047951,0.00034986,0.00031542,-0.00002956,-0.00890199,-
 0.00471997,0.00124899,-0.00114045,-0.00074275,0.00050740,0.04129058,-0
 .02321140,-0.03437944,0.00057339,-0.00204628,0.00488424,0.00080395,0.0
 0429437,-0.00648985,-0.00174452,-0.00227673,0.00438527,0.05927840,-0.0
 2514386,-0.09090555,-0.08072556,0.07829876,0.14968740,-0.02287717,-0.0
 1049114,-0.00872360,0.00097552,0.00039956,0.00060489,0.06652566,0.0678
 4180,0.03720257,-0.01737459,-0.01342707,-0.00508429,0.00195560,0.00464
 216,-0.01312996,0.00146081,-0.00131995,0.00314562,-0.00011253,0.000018
 30,0.00013233,-0.00009396,-0.00198045,0.00106568,-0.05616404,0.0221608
 6,0.03718143,0.08639862,0.01439198,-0.00672329,-0.05611290,-0.00325955
 ,-0.00197788,-0.00066279,0.00026956,0.00033200,0.00033065,0.05738926,0
 .02050878,0.02211789,-0.00914488,-0.00652554,-0.00309325,0.00110732,0.
 00211659,-0.00779125,0.00051882,-0.00044348,0.00206314,-0.00006329,0.0
 0018464,0.00007074,0.00012353,-0.00136727,0.00036965,-0.00826979,0.022
 48805,0.02288451,0.04872873,-0.02738214,-0.02114487,-0.07728802,0.0134
 0389,-0.01308838,-0.00549287,-0.00596039,-0.00012520,-0.00015312,-0.00
 004093,0.02649637,0.01809480,-0.01381922,0.00762641,0.00470793,-0.0008
 5736,0.00451639,0.00118997,-0.00164573,-0.00052046,-0.00048860,0.00044
 200,-0.00029185,0.00011889,-0.00068989,-0.00021313,-0.00052807,0.00002
 299,0.00423229,0.01354110,0.00861382,0.01763661,-0.01623089,-0.0275160
 0,-0.03989787,-0.00663434,0.04574793,-0.20356996,-0.10870170,-0.048801
 45,-0.01542358,-0.00973107,-0.00416159,-0.01771626,-0.00554119,-0.0086
 3322,0.00063950,0.00038654,-0.00002598,0.00037742,0.00026966,-0.000082
 89,-0.00006046,-0.00010604,-0.00002757,-0.00007724,-0.00002344,0.00001
 087,-0.00007598,-0.00007654,0.00000816,-0.00113377,0.00049209,0.000723
 72,0.00130374,-0.00055106,-0.00049844,-0.00069074,0.00114139,-0.001530
 19,0.22472751,-0.10141163,-0.11195137,-0.03168368,-0.00469021,-0.00322
 322,-0.00099541,0.01322638,0.00666968,0.00420660,-0.00065682,0.0002122
 7,-0.00052271,-0.00004124,-0.00043036,0.00077668,-0.00004618,0.0000371
 5,-0.00021942,0.00000548,0.00003864,-0.00010650,0.00002133,0.00012835,
 -0.00004861,0.00154451,-0.00069423,-0.00146763,-0.00276410,0.00034379,
 0.00087173,0.00372387,0.00144325,0.00140439,0.11363548,0.12807967,-0.0
 5169683,-0.03639104,-0.06236410,0.02210167,0.01432648,0.00687273,-0.02
 039392,-0.00785306,-0.00935244,0.00105762,0.00030810,0.00063392,-0.000
 14879,0.00048764,-0.00127778,0.00019911,-0.00001995,0.00035967,0.00003
 072,-0.00002350,0.00015736,0.00009396,-0.00009881,0.00010839,-0.001499
 28,0.00073515,0.00164035,0.00195999,-0.00100187,-0.00090116,-0.0025704
 1,0.00036388,-0.00117991,0.05875167,0.03825426,0.06793484,-0.00634616,
 0.02025882,0.00688470,0.00067639,-0.00121468,0.00028768,-0.08527121,0.
 05430979,0.02209455,-0.00314937,0.01482805,0.00554570,-0.00024407,0.00
 151682,-0.00255773,0.00037678,-0.00040980,0.00055969,-0.00016289,-0.00
 010725,0.00036217,0.00021392,-0.00029508,0.00015321,-0.00381076,0.0028
 0748,0.00476849,0.01025841,-0.00178281,-0.00282631,-0.00932656,-0.0154
 9641,-0.00636794,0.00105931,-0.00094088,0.00088349,0.53589410,0.007747
 79,-0.01566340,-0.00413899,-0.00078185,0.00059340,-0.00123500,0.062757
 09,-0.16307869,-0.03395336,-0.00256957,0.00441720,0.00261968,-0.000056
 59,0.00017905,-0.00052757,0.00000006,-0.00020357,0.00016372,-0.0000714
 0,-0.00003804,0.00015873,0.00003107,-0.00008738,-0.00004547,-0.0009502
 7,0.00184964,0.00175516,0.00815038,0.00192288,0.00026763,-0.00931600,-
 0.01972842,-0.00834960,-0.00066151,0.00053432,-0.00059044,0.00718054,0
 .48711941,-0.00679999,0.02089431,0.01168865,-0.00032943,0.00040302,0.0
 0073223,0.02476411,-0.03465761,-0.10091797,0.00873099,-0.02611848,-0.0
 0734868,0.00031682,0.00028751,0.00018640,-0.00025309,0.00024029,-0.000
 11565,0.00009601,0.00002592,0.00007443,-0.00010536,-0.00004244,-0.0002
 5947,-0.00048253,0.00015098,0.00005098,0.00251281,0.00103934,0.0001725
 9,-0.00251648,-0.00741667,-0.00313165,0.00035599,-0.00045210,0.0004996
 0,0.01102433,-0.03788359,0.56293307,-0.00005996,0.00202118,0.00222625,
 0.00010230,0.00008233,-0.00020860,-0.00799114,0.00385335,-0.00958330,0
 .00011856,-0.00043156,0.00007974,-0.00002388,-0.00015786,0.00032309,-0
 .00004558,0.00008787,-0.00007767,0.00001324,-0.00000151,-0.00000870,-0
 .00004701,0.00003939,-0.00005279,0.00031873,-0.00010542,-0.00034947,-0
 .00020776,0.00031504,0.00026677,0.00034903,0.00001299,0.00004508,0.000
 37620,-0.00025982,0.00027478,-0.14122716,0.06669533,-0.10982202,0.1505
 7600,0.00135119,-0.00410508,-0.00424471,-0.00025546,0.00023360,-0.0003
 1439,0.01623901,-0.01382143,0.02215921,-0.00073694,0.00095782,-0.00056
 134,0.00006712,-0.00009890,0.00043975,-0.00005630,0.00001951,-0.000103
 31,-0.00000670,-0.00000190,-0.00003723,-0.00002905,0.00006895,-0.00009
 376,-0.00047641,0.00041252,0.00028506,0.00007828,-0.00000424,-0.000792
 11,0.00099314,0.00005388,0.00079504,0.00026041,0.00025704,0.00001903,0
 .06516719,-0.08974553,0.07607142,-0.07418338,0.10053689,0.00047398,-0.
 00209796,-0.00062415,-0.00008472,-0.00032008,0.00035922,0.00804025,-0.
 00526251,0.01030927,-0.00012105,0.00088094,0.00068124,-0.00014282,0.00
 005563,-0.00023582,0.00006705,-0.00006671,0.00006496,0.00002618,0.0000
 1660,-0.00001607,0.00004999,-0.00003069,0.00007256,0.00009796,-0.00057
 510,-0.00018566,-0.00040515,0.00025133,0.00021442,0.00037321,0.0002506
 2,0.00028173,0.00000498,0.00002746,-0.00014011,-0.10982584,0.07751997,
 -0.17984994,0.12093599,-0.08263049,0.19147105,0.00015826,-0.00096437,0
 .00055203,0.00004165,0.00054720,-0.00055241,-0.00757052,-0.00302750,0.
 01095493,-0.00007635,0.00237403,0.00035246,0.00002771,-0.00053635,0.00
 053971,-0.00005044,0.00004654,-0.00012080,-0.00005616,-0.00000782,-0.0
 0003666,-0.00006063,0.00009261,-0.00007036,0.00028284,-0.00019101,-0.0
 0053210,-0.00064213,0.00038680,0.00035344,0.00066870,0.00023777,-0.000
 17216,-0.00004927,0.00005757,0.00006085,-0.12542379,-0.02437189,0.1177
 6090,0.01173033,0.00312746,-0.01633344,0.13382930,-0.00058179,0.001379
 04,-0.00086038,-0.00018403,-0.00009093,0.00064203,0.01608113,0.0049046
 5,-0.02616057,0.00254609,-0.00486876,-0.00195703,-0.00056294,-0.000156
 85,-0.00024698,0.00007744,-0.00025380,0.00021479,0.00006175,0.00001025
 ,0.00003002,0.00014074,0.00003485,0.00007133,-0.00031879,0.00001237,0.
 00022704,-0.00005206,-0.00022804,-0.00008702,0.00087926,0.00067073,-0.
 00024760,-0.00010409,0.00004125,0.00005356,-0.02489735,-0.05533978,0.0
 4205870,-0.00815812,-0.00321739,0.00975034,0.02652948,0.06146552,-0.00
 126658,0.00012213,0.00045513,0.00034854,-0.00032445,0.00073376,0.00689
 865,0.00014446,-0.01137016,0.00117314,-0.00214772,0.00072755,-0.000247
 36,-0.00014998,0.00001807,0.00012011,-0.00013904,0.00014272,-0.0000507
 2,-0.00004953,0.00002562,0.00006893,0.00004746,0.00006424,-0.00039229,
 0.00119032,0.00091623,0.00089561,-0.00058246,-0.00067008,-0.00009517,-
 0.00003959,-0.00025432,-0.00012688,0.00014015,-0.00005133,0.11668581,0
 .04126017,-0.22322916,0.01286006,0.00365903,-0.01754021,-0.13180981,-0
 .04184746,0.24299439,0.00032470,-0.00077618,0.00000041,-0.00001056,0.0
 0001165,0.00002825,0.00887322,0.00819464,0.00217828,0.00016648,-0.0007
 7310,-0.00034876,0.00012937,-0.00014787,0.00030080,-0.00007947,0.00015
 363,-0.00013016,0.00005588,0.00003753,-0.00008004,-0.00004941,0.000014
 65,-0.00001129,0.00064208,-0.00154589,-0.00138306,-0.00265227,0.000750
 62,0.00109417,0.00332442,0.00268900,0.00086965,-0.00008408,-0.00007404
 ,-0.00001424,-0.17213345,-0.11526973,-0.04167390,-0.01385873,-0.012796
 55,-0.00339733,-0.01310935,-0.01115232,-0.00479410,0.18833326,-0.00067
 497,0.00193716,-0.00033171,-0.00009091,-0.00008532,-0.00009330,-0.0156
 2129,-0.02381372,-0.00844254,0.00067767,0.00082810,0.00023315,0.000057
 63,0.00039695,-0.00067863,0.00006720,-0.00004813,0.00010735,-0.0000381
 6,-0.00003962,0.00010286,-0.00000014,-0.00010464,0.00002423,-0.0015043
 7,0.00095022,0.00156946,0.00205156,-0.00042169,-0.00086546,0.00030895,
 -0.00274932,-0.00130594,0.00099990,-0.00031417,0.00062140,-0.12280849,
 -0.15190562,-0.03814987,0.00968832,0.00933549,0.00282622,-0.00432137,-
 0.00433652,-0.00132378,0.13074788,0.17005730,-0.00028530,0.00024797,-0
 .00001203,0.00009366,0.00006453,0.00003926,-0.00635036,-0.00945816,-0.
 00431465,0.00049962,0.00057622,0.00030143,-0.00017011,0.00022366,-0.00
 057967,0.00015206,-0.00012670,0.00017064,-0.00005037,-0.00003046,0.000
 06375,0.00006920,-0.00006162,0.00010286,-0.00074885,0.00072809,0.00098
 719,0.00141127,-0.00039579,-0.00055237,-0.00043246,-0.00170932,-0.0002
 3016,0.00016032,0.00003478,0.00031006,-0.04488644,-0.03838957,-0.05831
 706,-0.01615359,-0.01577574,-0.00544122,0.01946659,0.01821717,0.006766
 51,0.04712734,0.04572571,0.06077475,-0.08614080,0.02804982,0.01393201,
 -0.00572937,0.01775212,0.00638902,-0.00962618,0.01948158,0.00629297,0.
 00075031,-0.00148201,0.00035093,0.00009292,-0.00001997,0.00018612,0.00
 002665,0.00012478,0.00001251,0.00004435,-0.00002577,-0.00003056,-0.000
 10321,-0.00001403,-0.00003573,0.00029562,-0.00036216,-0.00040884,-0.00
 052752,-0.00005454,0.00030247,0.00065592,0.00147649,0.00035413,0.00878
 717,-0.02424824,-0.00966044,-0.00161603,0.00094631,-0.00268004,-0.0000
 0657,0.00109011,0.00019426,0.00019964,-0.00011114,-0.00017318,0.000233
 92,0.00042875,0.00008688,0.56834047,0.02712976,-0.16737069,-0.03871360
 ,-0.00101593,0.00355799,0.00123750,0.01147927,-0.02003032,-0.00397884,
 -0.00085624,0.00116004,-0.00104607,0.00023702,0.00019777,0.00010852,-0
 .00000808,0.00003622,-0.00001464,-0.00003672,-0.00003141,-0.00003003,-
 0.00012619,-0.00006994,-0.00003821,-0.00056182,-0.00000980,0.00058450,
 0.00236243,-0.00003337,-0.00038876,-0.00264766,-0.00045908,-0.00085172
 ,0.00719456,-0.01847385,-0.00798825,0.00033831,-0.00058781,0.00192208,
 0.00022238,-0.00029730,-0.00050697,0.00019476,-0.00005560,-0.00006415,
 0.00005491,-0.00003289,0.00002589,0.02381736,0.49662575,0.01402743,-0.
 03922146,-0.09920654,0.00778366,-0.02622706,-0.00955460,-0.00531750,0.
 02072403,0.01179795,-0.00043206,0.00045887,0.00072919,0.00004336,0.000
 37257,-0.00047785,-0.00005761,-0.00003580,0.00011128,0.00002399,-0.000
 04034,0.00006413,-0.00004286,-0.00009925,0.00002274,-0.00072337,0.0002
 5155,0.00054471,0.00132817,-0.00034751,0.00009435,-0.00100036,-0.00011
 185,0.00003523,0.00344869,-0.00851811,-0.00356815,-0.00314638,0.001982
 49,-0.00419140,-0.00092259,0.00140037,0.00064325,-0.00025041,-0.000121
 14,0.00027451,0.00027888,-0.00014133,-0.00004363,0.01568678,-0.0365079
 8,0.56107253,-0.00598251,-0.00120706,0.00727283,0.00061598,0.00198185,
 0.00042890,0.00006201,-0.00102214,0.00077516,-0.00003848,0.00057004,-0
 .00046567,0.00010487,-0.00008304,0.00019182,-0.00000790,-0.00004155,-0
 .00007132,-0.00002506,0.00002649,-0.00003763,0.00002561,0.00002465,-0.
 00000141,0.00008045,0.00000350,-0.00022697,-0.00034082,0.00019366,-0.0
 0014427,0.00002816,-0.00004102,0.00027383,0.00060471,0.00021682,-0.000
 49917,0.00008245,0.00020652,-0.00033151,-0.00002516,0.00006043,-0.0000
 1612,0.00010147,-0.00013273,-0.00011118,-0.00001322,-0.00002823,0.0000
 0763,-0.13118703,-0.02120390,0.11996830,0.13894516,0.01867955,0.003483
 20,-0.02638702,0.00229646,-0.00545292,-0.00230464,-0.00036655,0.001832
 21,-0.00111219,-0.00018526,-0.00012921,0.00070544,-0.00004826,-0.00000
 833,-0.00010784,-0.00001932,-0.00006893,0.00002091,0.00000202,0.000017
 37,0.00001095,0.00006478,0.00001376,0.00003671,-0.00006338,0.00008110,
 0.00005340,-0.00003497,0.00000893,-0.00009883,-0.00001510,-0.00001398,
 0.00003656,-0.00055309,0.00150222,0.00044968,-0.00004331,-0.00006509,-
 0.00003325,-0.00007585,-0.00001003,0.00011625,-0.00016156,0.00003082,0
 .00018023,0.00001064,-0.00000129,-0.00002656,-0.02195538,-0.05285109,0
 .03194094,0.02153483,0.05768214,0.00713059,0.00144751,-0.01110426,0.00
 015182,-0.00270106,0.00028142,-0.00093491,0.00063591,0.00063937,0.0004
 1285,-0.00039888,0.00059104,-0.00009773,-0.00001632,-0.00009428,0.0000
 1512,0.00000769,0.00003435,0.00001949,0.00000128,0.00001193,0.00002296
 ,0.00001130,0.00001093,0.00007872,-0.00003917,0.00001277,-0.00012510,0
 .00001645,0.00001755,0.00012868,0.00005363,-0.00003000,-0.00042004,0.0
 0004057,0.00001667,-0.00011856,-0.00012979,0.00033728,0.00002302,-0.00
 006095,0.00001599,-0.00013438,0.00018291,0.00000903,0.00000124,-0.0000
 0902,-0.00003537,0.11999921,0.03069290,-0.22254199,-0.13385639,-0.0316
 2919,0.24166595,-0.00555361,0.00336714,-0.00617214,-0.00023402,-0.0002
 4150,-0.00003298,0.00026093,0.00163491,0.00185461,-0.00003165,0.000007
 46,-0.00021184,0.00003653,0.00015255,-0.00025553,0.00002694,0.00000678
 ,0.00002416,-0.00001025,-0.00001062,0.00003453,0.00000092,-0.00004327,
 -0.00000041,-0.00027458,0.00014843,0.00020503,0.00021115,0.00007735,-0
 .00001144,-0.00000945,-0.00036015,0.00016436,0.00052657,-0.00017237,0.
 00030476,0.00001315,0.00028130,-0.00071163,-0.00008319,0.00017849,0.00
 008331,0.00000015,-0.00007050,0.00000049,0.00000329,0.00006882,0.00003
 089,-0.12616069,0.07180080,-0.09776426,0.01108116,-0.01023327,0.012821
 84,0.13353010,0.01559762,-0.01457847,0.02173904,-0.00002233,0.00128856
 ,-0.00013251,0.00069657,-0.00522008,-0.00481855,-0.00018980,0.00021866
 ,-0.00012882,-0.00002854,-0.00011626,0.00018620,-0.00002359,-0.0000134
 7,-0.00002309,0.00000482,0.00000285,-0.00001749,0.00001856,0.00004319,
 -0.00000646,0.00029548,-0.00005377,-0.00037408,-0.00064474,0.00025305,
 0.00023240,0.00046059,0.00014113,0.00000045,-0.00081209,0.00086382,0.0
 0061097,0.00118747,-0.00029016,0.00163144,0.00027732,-0.00057711,-0.00
 022253,0.00003030,0.00002101,-0.00005089,-0.00013607,0.00003786,0.0000
 3014,0.07111006,-0.11339576,0.08928293,0.00206450,-0.00300027,0.002795
 05,-0.08079379,0.12422403,0.00879556,-0.00834459,0.01011823,-0.0001631
 9,0.00077268,0.00068065,0.00051274,-0.00189584,-0.00103299,-0.00004616
 ,-0.00035442,0.00034471,0.00001911,0.00005204,-0.00005914,0.00000457,-
 0.00001106,0.00000293,-0.00001109,-0.00000426,0.00001288,0.00000490,-0
 .00001231,-0.00000042,-0.00007772,0.00005337,0.00006357,0.00003513,0.0
 0006145,0.00002543,0.00004867,-0.00018435,-0.00014403,-0.00015172,0.00
 090104,0.00044414,0.00044519,-0.00051940,0.00072387,0.00011686,-0.0002
 3444,-0.00008699,-0.00003496,0.00010044,0.00001647,-0.00003363,0.00004
 937,0.00001967,-0.09835974,0.09103021,-0.17041592,-0.01544260,0.012541
 90,-0.01764365,0.10718720,-0.09745433,0.18252942,0.00932880,0.00698278
 ,0.00276168,0.00065537,-0.00065272,-0.00034498,0.00085747,-0.00017669,
 0.00035251,-0.00005834,-0.00010413,-0.00005653,-0.00009268,-0.00005680
 ,0.00003562,0.00002221,0.00003241,0.00002393,0.00002283,-0.00000897,0.
 00000316,-0.00002469,0.00001051,-0.00000006,-0.00003330,0.00011455,-0.
 00002979,-0.00058316,-0.00012308,0.00001484,0.00041950,0.00022827,-0.0
 0000793,0.00047923,0.00287409,0.00076446,0.00013695,0.00005242,0.00014
 401,-0.00000826,-0.00007205,-0.00002067,-0.00000142,0.00000997,0.00001
 593,-0.00009608,-0.00000876,-0.00002799,-0.21832957,-0.11837504,-0.052
 93188,-0.01411186,-0.00883299,-0.00511840,-0.01333344,-0.00909233,-0.0
 0284914,0.23475045,-0.02340888,-0.01814771,-0.00721013,0.00011320,0.00
 132708,0.00016898,-0.00225427,0.00101353,-0.00070836,0.00001647,-0.000
 17496,0.00016218,0.00008991,0.00006878,-0.00004794,0.00001765,-0.00007
 925,-0.00004645,-0.00004183,0.00000039,0.00000880,0.00004596,0.0000010
 0,0.00001829,0.00007411,0.00005332,-0.00033155,-0.00051482,0.00055040,
 0.00027353,0.00066494,-0.00069583,0.00039361,0.00248180,-0.00506425,-0
 .00226322,0.00040157,0.00011759,0.00002898,0.00007801,0.00000321,0.000
 01770,-0.00004264,-0.00002283,-0.00002490,0.00000660,0.00030986,0.0000
 9975,-0.11600415,-0.12787884,-0.03504192,-0.00312363,-0.00305060,-0.00
 090082,0.01420145,0.01015120,0.00345248,0.12719855,0.14151791,-0.01010
 818,-0.00768530,-0.00384754,-0.00052820,0.00040123,-0.00001658,-0.0002
 2369,0.00065060,0.00013880,0.00011203,-0.00001395,0.00001703,0.0001369
 4,-0.00018135,0.00035601,-0.00004572,-0.00009773,-0.00012013,-0.000035
 06,0.00004344,-0.00007730,0.00006944,0.00006072,0.00002227,0.00022164,
 -0.00016291,-0.00036058,-0.00050820,0.00042345,-0.00027313,0.00029081,
 0.00028355,0.00035588,0.00099556,-0.00264349,-0.00014277,0.00003420,0.
 00003523,-0.00003814,0.00002710,0.00001956,0.00000647,0.00000657,-0.00
 002013,-0.00002898,-0.00001254,0.00008182,-0.00000995,-0.05243874,-0.0
 3547236,-0.06538980,0.02228577,0.01560654,0.00780530,-0.01755096,-0.01
 327988,-0.00559886,0.05727122,0.04195097,0.06720200\\-0.00000045,-0.00
 000047,0.00000032,-0.00000001,0.00000062,0.00000031,-0.00000031,0.0000
 0020,0.,0.00000086,0.00000102,0.00000048,-0.00000015,0.00000018,-0.000
 00035,-0.00000033,-0.00000028,-0.00000017,-0.00000003,0.00000061,-0.00
 000005,-0.00000035,0.00000033,0.,0.00000040,-0.00000127,-0.00000184,-0
 .00000127,0.00000085,0.00000166,0.00000053,-0.00000081,-0.00000038,0.0
 0000043,-0.00000052,-0.00000043,-0.00000002,-0.00000013,0.00000017,-0.
 00000004,-0.00000032,-0.00000004,0.00000137,0.00000103,-0.00000038,0.0
 0000045,0.00000013,-0.00000084,-0.00000057,-0.00000046,0.00000057,-0.0
 0000021,-0.00000037,0.00000021,-0.00000010,-0.00000014,0.00000036,-0.0
 0000018,-0.00000021,0.00000041\\\@


 The lyf so short, the craft so long to lerne.
                             -- Chaucer
 Job cpu time:       4 days 17 hours 36 minutes 36.0 seconds.
 Elapsed time:       0 days  2 hours 52 minutes 25.7 seconds.
 File lengths (MBytes):  RWF= 138775 Int=      0 D2E=      0 Chk=     25 Scr=      1
 Normal termination of Gaussian 16 at Sat Jun  8 07:36:14 2019.
