 Entering Gaussian System, Link 0=g16
 Initial command:
 /ichec/packages/gaussian/16b01/l1.exe "/localscratch/341085/Gau-38630.inp" -scrdir="/localscratch/341085/"
 Entering Link 1 = /ichec/packages/gaussian/16b01/l1.exe PID=     39329.
  
 Copyright (c) 1988-2017, Gaussian, Inc.  All Rights Reserved.
  
 This is part of the Gaussian(R) 16 program.  It is based on
 the Gaussian(R) 09 system (copyright 2009, Gaussian, Inc.),
 the Gaussian(R) 03 system (copyright 2003, Gaussian, Inc.),
 the Gaussian(R) 98 system (copyright 1998, Gaussian, Inc.),
 the Gaussian(R) 94 system (copyright 1995, Gaussian, Inc.),
 the Gaussian 92(TM) system (copyright 1992, Gaussian, Inc.),
 the Gaussian 90(TM) system (copyright 1990, Gaussian, Inc.),
 the Gaussian 88(TM) system (copyright 1988, Gaussian, Inc.),
 the Gaussian 86(TM) system (copyright 1986, Carnegie Mellon
 University), and the Gaussian 82(TM) system (copyright 1983,
 Carnegie Mellon University). Gaussian is a federally registered
 trademark of Gaussian, Inc.
  
 This software contains proprietary and confidential information,
 including trade secrets, belonging to Gaussian, Inc.
  
 This software is provided under written license and may be
 used, copied, transmitted, or stored only in accord with that
 written license.
  
 The following legend is applicable only to US Government
 contracts under FAR:
  
                    RESTRICTED RIGHTS LEGEND
  
 Use, reproduction and disclosure by the US Government is
 subject to restrictions as set forth in subparagraphs (a)
 and (c) of the Commercial Computer Software - Restricted
 Rights clause in FAR 52.227-19.
  
 Gaussian, Inc.
 340 Quinnipiac St., Bldg. 40, Wallingford CT 06492
  
  
 ---------------------------------------------------------------
 Warning -- This program may not be used in any manner that
 competes with the business of Gaussian, Inc. or will provide
 assistance to any competitor of Gaussian, Inc.  The licensee
 of this program is prohibited from giving any competitor of
 Gaussian, Inc. access to this program.  By using this program,
 the user acknowledges that Gaussian, Inc. is engaged in the
 business of creating and licensing software in the field of
 computational chemistry and represents and warrants to the
 licensee that it is not a competitor of Gaussian, Inc. and that
 it will not use this program in any manner prohibited above.
 ---------------------------------------------------------------
  

 Cite this work as:
 Gaussian 16, Revision B.01,
 M. J. Frisch, G. W. Trucks, H. B. Schlegel, G. E. Scuseria, 
 M. A. Robb, J. R. Cheeseman, G. Scalmani, V. Barone, 
 G. A. Petersson, H. Nakatsuji, X. Li, M. Caricato, A. V. Marenich, 
 J. Bloino, B. G. Janesko, R. Gomperts, B. Mennucci, H. P. Hratchian, 
 J. V. Ortiz, A. F. Izmaylov, J. L. Sonnenberg, D. Williams-Young, 
 F. Ding, F. Lipparini, F. Egidi, J. Goings, B. Peng, A. Petrone, 
 T. Henderson, D. Ranasinghe, V. G. Zakrzewski, J. Gao, N. Rega, 
 G. Zheng, W. Liang, M. Hada, M. Ehara, K. Toyota, R. Fukuda, 
 J. Hasegawa, M. Ishida, T. Nakajima, Y. Honda, O. Kitao, H. Nakai, 
 T. Vreven, K. Throssell, J. A. Montgomery, Jr., J. E. Peralta, 
 F. Ogliaro, M. J. Bearpark, J. J. Heyd, E. N. Brothers, K. N. Kudin, 
 V. N. Staroverov, T. A. Keith, R. Kobayashi, J. Normand, 
 K. Raghavachari, A. P. Rendell, J. C. Burant, S. S. Iyengar, 
 J. Tomasi, M. Cossi, J. M. Millam, M. Klene, C. Adamo, R. Cammi, 
 J. W. Ochterski, R. L. Martin, K. Morokuma, O. Farkas, 
 J. B. Foresman, and D. J. Fox, Gaussian, Inc., Wallingford CT, 2016.
 
 ******************************************
 Gaussian 16:  ES64L-G16RevB.01 20-Dec-2017
                 7-Jun-2019 
 ******************************************
 %mem=80GB
 %nproc=40
 Will use up to   40 processors via shared memory.
 ----------------------------------------------------------------------
 # opt=(calcfc,ts,noeigentest,maxcyc=500) freq=noraman uB2PLYPD3/cc-pvt
 z
 ----------------------------------------------------------------------
 1/5=1,6=500,10=4,11=1,18=20,38=1/1,3;
 2/9=110,12=2,17=6,18=5,40=1/2;
 3/5=16,6=1,11=2,25=1,30=1,71=2,74=-60,116=2,140=1/1,2,3;
 4//1;
 5/5=2,38=5/2;
 8/6=3,8=1,10=1,19=11,30=-1/1;
 9/15=3,16=-3/6;
 11/6=1,8=1,15=11,17=12,24=-1,27=1,28=-2,29=300,32=6,42=3/1,2,10;
 10/6=2,21=1/2;
 8/6=4,8=1,10=1,19=11,30=-1/11,4;
 10/5=1,20=4/2;
 11/12=2,14=11,16=1,17=2,28=-2,42=3,76=2/2,10,12;
 6/7=2,8=2,9=2,10=2/1;
 7/10=1,12=2,25=1,44=2/1,2,3,16;
 1/5=1,6=500,10=4,11=1,18=20/3(2);
 2/9=110/2;
 99//99;
 2/9=110/2;
 3/5=16,6=1,11=2,25=1,30=1,71=1,74=-60,116=2/1,2,3;
 4/5=5,16=3,69=1/1;
 5/5=2,38=5/2;
 8/6=4,10=1/1;
 9/15=2,16=-3/6;
 10/5=1/2;
 7/12=2/1,2,3,16;
 1/5=1,6=500,11=1,18=20/3(-8);
 2/9=110/2;
 6/7=2,8=2,9=2,10=2/1;
 99/9=10/99;
 -------------------
 Title Card Required
 -------------------
 Symbolic Z-matrix:
 Charge =  0 Multiplicity = 2
 C                     1.04831   1.26057  -0.02715 
 C                     1.95836   0.37124  -0.33887 
 H                     0.98506   2.32399  -0.21188 
 C                    -2.18499  -0.0028   -0.78648 
 H                    -1.5983    0.7365   -1.33823 
 H                    -2.53288  -0.78015  -1.46421 
 H                    -3.03055   0.48151  -0.29826 
 O                    -1.37487  -0.65977   0.16486 
 O                    -0.97912   0.27334   1.11411 
 H                    -0.08514   0.75393   0.66361 
 C                     1.92474  -1.08886  -0.00133 
 H                     1.0329   -1.34076   0.56614 
 H                     1.94227  -1.68806  -0.91257 
 H                     2.80807  -1.35771   0.57919 
 H                     2.83196   0.72133  -0.89256 
 
 Add virtual bond connecting atoms H10        and C1         Dist= 2.68D+00.

 GradGradGradGradGradGradGradGradGradGradGradGradGradGradGradGradGradGrad
 Berny optimization.
 Initialization pass.
                           ----------------------------
                           !    Initial Parameters    !
                           ! (Angstroms and Degrees)  !
 --------------------------                            --------------------------
 ! Name  Definition              Value          Derivative Info.                !
 --------------------------------------------------------------------------------
 ! R1    R(1,2)                  1.3101         calculate D2E/DX2 analytically  !
 ! R2    R(1,3)                  1.0812         calculate D2E/DX2 analytically  !
 ! R3    R(1,10)                 1.4208         calculate D2E/DX2 analytically  !
 ! R4    R(2,11)                 1.499          calculate D2E/DX2 analytically  !
 ! R5    R(2,15)                 1.0919         calculate D2E/DX2 analytically  !
 ! R6    R(4,5)                  1.0932         calculate D2E/DX2 analytically  !
 ! R7    R(4,6)                  1.0884         calculate D2E/DX2 analytically  !
 ! R8    R(4,7)                  1.0899         calculate D2E/DX2 analytically  !
 ! R9    R(4,8)                  1.4117         calculate D2E/DX2 analytically  !
 ! R10   R(8,9)                  1.3887         calculate D2E/DX2 analytically  !
 ! R11   R(9,10)                 1.1105         calculate D2E/DX2 analytically  !
 ! R12   R(11,12)                1.0867         calculate D2E/DX2 analytically  !
 ! R13   R(11,13)                1.0907         calculate D2E/DX2 analytically  !
 ! R14   R(11,14)                1.0907         calculate D2E/DX2 analytically  !
 ! A1    A(2,1,3)              131.8869         calculate D2E/DX2 analytically  !
 ! A2    A(2,1,10)             115.3278         calculate D2E/DX2 analytically  !
 ! A3    A(3,1,10)             112.7767         calculate D2E/DX2 analytically  !
 ! A4    A(1,2,11)             126.3045         calculate D2E/DX2 analytically  !
 ! A5    A(1,2,15)             117.3078         calculate D2E/DX2 analytically  !
 ! A6    A(11,2,15)            116.3865         calculate D2E/DX2 analytically  !
 ! A7    A(5,4,6)              109.8915         calculate D2E/DX2 analytically  !
 ! A8    A(5,4,7)              109.9941         calculate D2E/DX2 analytically  !
 ! A9    A(5,4,8)              110.2947         calculate D2E/DX2 analytically  !
 ! A10   A(6,4,7)              110.3846         calculate D2E/DX2 analytically  !
 ! A11   A(6,4,8)              105.7036         calculate D2E/DX2 analytically  !
 ! A12   A(7,4,8)              110.4957         calculate D2E/DX2 analytically  !
 ! A13   A(4,8,9)              108.1485         calculate D2E/DX2 analytically  !
 ! A14   A(8,9,10)             104.0589         calculate D2E/DX2 analytically  !
 ! A15   A(2,11,12)            111.2105         calculate D2E/DX2 analytically  !
 ! A16   A(2,11,13)            110.2802         calculate D2E/DX2 analytically  !
 ! A17   A(2,11,14)            109.9866         calculate D2E/DX2 analytically  !
 ! A18   A(12,11,13)           108.7905         calculate D2E/DX2 analytically  !
 ! A19   A(12,11,14)           109.2445         calculate D2E/DX2 analytically  !
 ! A20   A(13,11,14)           107.2323         calculate D2E/DX2 analytically  !
 ! A21   L(1,10,9,5,-1)        176.0041         calculate D2E/DX2 analytically  !
 ! A22   L(1,10,9,5,-2)        174.9987         calculate D2E/DX2 analytically  !
 ! D1    D(3,1,2,11)           179.2462         calculate D2E/DX2 analytically  !
 ! D2    D(3,1,2,15)            -0.3258         calculate D2E/DX2 analytically  !
 ! D3    D(10,1,2,11)           -1.9163         calculate D2E/DX2 analytically  !
 ! D4    D(10,1,2,15)          178.5116         calculate D2E/DX2 analytically  !
 ! D5    D(2,1,9,8)            -56.7869         calculate D2E/DX2 analytically  !
 ! D6    D(3,1,9,8)            120.328          calculate D2E/DX2 analytically  !
 ! D7    D(1,2,11,12)           -0.808          calculate D2E/DX2 analytically  !
 ! D8    D(1,2,11,13)          119.9728         calculate D2E/DX2 analytically  !
 ! D9    D(1,2,11,14)         -121.9631         calculate D2E/DX2 analytically  !
 ! D10   D(15,2,11,12)         178.7675         calculate D2E/DX2 analytically  !
 ! D11   D(15,2,11,13)         -60.4517         calculate D2E/DX2 analytically  !
 ! D12   D(15,2,11,14)          57.6124         calculate D2E/DX2 analytically  !
 ! D13   D(5,4,8,9)             65.4455         calculate D2E/DX2 analytically  !
 ! D14   D(6,4,8,9)           -175.817          calculate D2E/DX2 analytically  !
 ! D15   D(7,4,8,9)            -56.3861         calculate D2E/DX2 analytically  !
 ! D16   D(4,8,9,10)           -84.4923         calculate D2E/DX2 analytically  !
 --------------------------------------------------------------------------------
 Trust Radius=3.00D-01 FncErr=1.00D-07 GrdErr=1.00D-07 EigMax=2.50D+02 EigMin=1.00D-04
 Number of steps in this run=    100 maximum allowed number of steps=    100.
 Search for a saddle point of order  1.
 GradGradGradGradGradGradGradGradGradGradGradGradGradGradGradGradGradGrad

                          Input orientation:                          
 ---------------------------------------------------------------------
 Center     Atomic      Atomic             Coordinates (Angstroms)
 Number     Number       Type             X           Y           Z
 ---------------------------------------------------------------------
      1          6           0        1.048308    1.260569   -0.027147
      2          6           0        1.958358    0.371235   -0.338872
      3          1           0        0.985062    2.323991   -0.211882
      4          6           0       -2.184990   -0.002795   -0.786476
      5          1           0       -1.598304    0.736497   -1.338230
      6          1           0       -2.532876   -0.780147   -1.464207
      7          1           0       -3.030552    0.481509   -0.298262
      8          8           0       -1.374866   -0.659771    0.164857
      9          8           0       -0.979121    0.273336    1.114108
     10          1           0       -0.085140    0.753929    0.663608
     11          6           0        1.924743   -1.088859   -0.001328
     12          1           0        1.032903   -1.340763    0.566137
     13          1           0        1.942265   -1.688055   -0.912574
     14          1           0        2.808068   -1.357708    0.579188
     15          1           0        2.831962    0.721326   -0.892560
 ---------------------------------------------------------------------
                    Distance matrix (angstroms):
                    1          2          3          4          5
     1  C    0.000000
     2  C    1.310068   0.000000
     3  H    1.081200   2.185563   0.000000
     4  C    3.553433   4.184206   3.974081   0.000000
     5  H    2.999691   3.712409   3.234591   1.093245   0.000000
     6  H    4.365151   4.771084   4.855912   1.088403   1.785918
     7  H    4.161434   4.990294   4.418977   1.089898   1.788264
     8  O    3.097797   3.525209   3.822830   1.411720   2.063676
     9  O    2.527362   3.278646   3.133919   2.267727   2.571355
    10  H    1.420750   2.308096   2.092107   2.661718   2.509447
    11  C    2.507711   1.498980   3.546108   4.322719   4.187015
    12  H    2.668174   2.146263   3.746735   3.738256   3.855499
    13  H    3.205858   2.137772   4.183745   4.459847   4.312223
    14  H    3.212440   2.134030   4.183784   5.350837   5.241975
    15  H    2.054542   1.091933   2.538286   5.070051   4.452652
                    6          7          8          9         10
     6  H    0.000000
     7  H    1.788543   0.000000
     8  O    2.002330   2.063564   0.000000
     9  O    3.189309   2.499299   1.388661   0.000000
    10  H    3.587812   3.110443   1.977547   1.110460   0.000000
    11  C    4.701668   5.206647   3.331539   3.395909   2.806713
    12  H    4.141421   4.536466   2.534192   2.637011   2.376395
    13  H    4.599509   5.460155   3.636150   4.060664   3.543728
    14  H    5.747584   6.184021   4.260953   4.158034   3.582847
    15  H    5.600240   5.897438   4.552248   4.330331   3.306389
                   11         12         13         14         15
    11  C    0.000000
    12  H    1.086670   0.000000
    13  H    1.090739   1.770349   0.000000
    14  H    1.090661   1.775294   1.756160   0.000000
    15  H    2.212264   3.101068   2.568478   2.547351   0.000000
 Stoichiometry    C4H9O2(2)
 Framework group  C1[X(C4H9O2)]
 Deg. of freedom    39
 Full point group                 C1      NOp   1
 Largest Abelian subgroup         C1      NOp   1
 Largest concise Abelian subgroup C1      NOp   1
                         Standard orientation:                         
 ---------------------------------------------------------------------
 Center     Atomic      Atomic             Coordinates (Angstroms)
 Number     Number       Type             X           Y           Z
 ---------------------------------------------------------------------
      1          6           0        1.048308    1.260569   -0.027147
      2          6           0        1.958358    0.371235   -0.338872
      3          1           0        0.985062    2.323991   -0.211882
      4          6           0       -2.184990   -0.002795   -0.786476
      5          1           0       -1.598304    0.736497   -1.338230
      6          1           0       -2.532876   -0.780147   -1.464207
      7          1           0       -3.030552    0.481509   -0.298262
      8          8           0       -1.374866   -0.659771    0.164857
      9          8           0       -0.979121    0.273336    1.114108
     10          1           0       -0.085140    0.753929    0.663608
     11          6           0        1.924743   -1.088859   -0.001328
     12          1           0        1.032903   -1.340763    0.566137
     13          1           0        1.942265   -1.688055   -0.912574
     14          1           0        2.808068   -1.357708    0.579188
     15          1           0        2.831962    0.721326   -0.892560
 ---------------------------------------------------------------------
 Rotational constants (GHZ):           5.4226372           1.7884752           1.6605525
 Standard basis: CC-pVTZ (5D, 7F)
 There are   345 symmetry adapted cartesian basis functions of A   symmetry.
 There are   306 symmetry adapted basis functions of A   symmetry.
   306 basis functions,   465 primitive gaussians,   345 cartesian basis functions
    25 alpha electrons       24 beta electrons
       nuclear repulsion energy       238.4157976046 Hartrees.
 NAtoms=   15 NActive=   15 NUniq=   15 SFac= 1.00D+00 NAtFMM=   60 NAOKFM=F Big=F
 Integral buffers will be    131072 words long.
 Raffenetti 2 integral format.
 Two-electron integral symmetry is turned on.
 Nuclear repulsion after empirical dispersion term =      238.4084792505 Hartrees.
 One-electron integrals computed using PRISM.
 NBasis=   306 RedAO= T EigKep=  4.09D-04  NBF=   306
 NBsUse=   306 1.00D-06 EigRej= -1.00D+00 NBFU=   306
 ExpMin= 1.03D-01 ExpMax= 1.53D+04 ExpMxC= 5.22D+02 IAcc=3 IRadAn=         5 AccDes= 0.00D+00
 Harris functional with IExCor=  419 and IRadAn=       5 diagonalized for initial guess.
 HarFok:  IExCor=  419 AccDes= 0.00D+00 IRadAn=         5 IDoV= 1 UseB2=F ITyADJ=14
 ICtDFT=  3500011 ScaDFX=  1.000000  1.000000  1.000000  1.000000
 FoFCou: FMM=F IPFlag=           0 FMFlag=      100000 FMFlg1=           0
         NFxFlg=           0 DoJE=T BraDBF=F KetDBF=T FulRan=T
         wScrn=  0.000000 ICntrl=       500 IOpCl=  0 I1Cent=   200000004 NGrid=           0
         NMat0=    1 NMatS0=      1 NMatT0=    0 NMatD0=    1 NMtDS0=    0 NMtDT0=    0
 Petite list used in FoFCou.
 Initial guess <Sx>= 0.0000 <Sy>= 0.0000 <Sz>= 0.5000 <S**2>= 0.7500 S= 0.5000
 Requested convergence on RMS density matrix=1.00D-08 within 128 cycles.
 Requested convergence on MAX density matrix=1.00D-06.
 Requested convergence on             energy=1.00D-06.
 No special actions if energy rises.
 Integral accuracy reduced to 1.0D-05 until final iterations.
 Initial convergence to 1.0D-05 achieved.  Increase integral accuracy.
 SCF Done:  E(UB2PLYPD3) =  -307.564479216     A.U. after   23 cycles
            NFock= 23  Conv=0.39D-08     -V/T= 2.0041
 <Sx>= 0.0000 <Sy>= 0.0000 <Sz>= 0.5000 <S**2>= 0.7789 S= 0.5143
 <L.S>=  0.00000000000    
 Annihilation of the first spin contaminant:
 S**2 before annihilation     0.7789,   after     0.7506
 DoSCS=T DFT=T ScalE2(SS,OS)=  0.270000  0.270000
 ExpMin= 1.03D-01 ExpMax= 1.53D+04 ExpMxC= 5.22D+02 IAcc=3 IRadAn=         5 AccDes= 0.00D+00
 HarFok:  IExCor=  205 AccDes= 0.00D+00 IRadAn=         5 IDoV=-2 UseB2=F ITyADJ=14
 ICtDFT= 12500011 ScaDFX=  1.000000  1.000000  1.000000  1.000000
 Range of M.O.s used for correlation:     7   306
 NBasis=   306 NAE=    25 NBE=    24 NFC=     6 NFV=     0
 NROrb=    300 NOA=    19 NOB=    18 NVA=   281 NVB=   282

 **** Warning!!: The largest alpha MO coefficient is  0.12119837D+02


 **** Warning!!: The largest beta MO coefficient is  0.12127691D+02

 DoSCS=T DFT=T ScalE2(SS,OS)=  0.270000  0.270000
 Disk-based method using ON**2 memory for 19 occupieds at a time.
 Permanent disk used for amplitudes=    70282596 words.
 Estimated scratch disk usage=  1367935792 words.
 Actual    scratch disk usage=  1322319664 words.
 JobTyp=2 Pass  1:  I=   7 to  25 NPSUse= 40 ParTrn=T ParDer=T DoDerP=T.
 (rs|ai) integrals will be sorted in core.
 Actual    scratch disk usage=  1322319664 words.
 JobTyp=3 Pass  1:  I=   7 to  24 NPSUse= 40 ParTrn=T ParDer=T DoDerP=T.
 (rs|ai) integrals will be sorted in core.
 Spin components of T(2) and E(2):
     alpha-alpha T2 =       0.6461076822D-01 E2=     -0.4672835508D-01
     alpha-beta  T2 =       0.3968648904D+00 E2=     -0.2894836318D+00
     beta-beta   T2 =       0.6928725288D-01 E2=     -0.4544322199D-01
 (S**2,0)=  0.77887D+00           (S**2,1)=  0.74973D+00
 Scaling Projection term by:   0.270000
 E(PUHF)=      -0.30757090377D+03        E(PMP2)=      -0.30794700379D+03
 E2(B2PLYPD3) =    -0.3816552089D+00 E(B2PLYPD3) =    -0.30794613442500D+03
 G2DrvN: will do    16 centers at a time, making    1 passes.
 Calling FoFCou, ICntrl=  3107 FMM=F I1Cent=   0 AccDes= 0.00D+00.
 End of G2Drv F.D. properties file   721 does not exist.
 End of G2Drv F.D. properties file   722 does not exist.
 End of G2Drv F.D. properties file   788 does not exist.
          IDoAtm=111111111111111
          Differentiating once with respect to electric field.
                with respect to dipole field.
          Differentiating once with respect to nuclear coordinates.
 Keep R1 and R2 ints in memory in canonical form, NReq=2252448322.
          There are    48 degrees of freedom in the 1st order CPHF.  IDoFFX=6 NUNeed=    48.
     45 vectors produced by pass  0 Test12= 2.87D-14 2.08D-09 XBig12= 7.44D+01 4.28D+00.
 AX will form    45 AO Fock derivatives at one time.
     45 vectors produced by pass  1 Test12= 2.87D-14 2.08D-09 XBig12= 5.93D+00 4.51D-01.
     45 vectors produced by pass  2 Test12= 2.87D-14 2.08D-09 XBig12= 3.01D-01 1.03D-01.
     45 vectors produced by pass  3 Test12= 2.87D-14 2.08D-09 XBig12= 5.19D-03 7.23D-03.
     45 vectors produced by pass  4 Test12= 2.87D-14 2.08D-09 XBig12= 5.36D-05 7.30D-04.
     45 vectors produced by pass  5 Test12= 2.87D-14 2.08D-09 XBig12= 5.19D-07 6.72D-05.
     45 vectors produced by pass  6 Test12= 2.87D-14 2.08D-09 XBig12= 4.35D-09 6.85D-06.
     22 vectors produced by pass  7 Test12= 2.87D-14 2.08D-09 XBig12= 2.51D-11 4.34D-07.
      3 vectors produced by pass  8 Test12= 2.87D-14 2.08D-09 XBig12= 1.54D-13 3.53D-08.
      2 vectors produced by pass  9 Test12= 2.87D-14 2.08D-09 XBig12= 1.41D-15 3.58D-09.
 InvSVY:  IOpt=1 It=  1 EMax= 2.66D-15
 Solved reduced A of dimension   342 with    48 vectors.
 End of Minotr F.D. properties file   721 does not exist.
 End of Minotr F.D. properties file   722 does not exist.
 End of Minotr F.D. properties file   788 does not exist.
 MDV= 10737418240.
 DoSCS=T DFT=T ScalE2(SS,OS)=  0.270000  0.270000
 Form MO integral derivatives with frozen-active canonical formalism.
 Discarding MO integrals.
 Reordered first order wavefunction length =    283226920
 In DefCFB: NBatch=  1 ICI= 25 ICA=282 LFMax= 71
            Large arrays: LIAPS=  5824508040 LIARS=  1191802500 words.
 In DefCFB: NBatch=  1 ICI= 25 ICA=282 LFMax= 71
            Large arrays: LIAPS=  5824508040 LIARS=  1191802500 words.
 Semi-Direct transformation.
 ModeAB=           4 MOrb=            25 LenV=   10734614051
 LASXX=    339668775 LTotXX=   339668775 LenRXX=   684905625
 LTotAB=   345236850 MaxLAS=   424965150 LenRXY=           0
 NonZer=  1024574400 LenScr=  1542889472 LnRSAI=   424965150
 LnScr1=   639947776 LExtra=           0 Total=   3292708023
 MaxDsk=          -1 SrtSym=           T ITran=            4
 JobTyp=1 Pass  1:  I=   1 to  25.
 (rs|ai) integrals will be sorted in core.
 ModeAB=           4 MOrb=            24 LenV=   10734614051
 LASXX=    326802342 LTotXX=   326802342 LenRXX=   606843570
 LTotAB=   280041228 MaxLAS=   407966544 LenRXY=           0
 NonZer=   933645912 LenScr=  1405961216 LnRSAI=   407966544
 LnScr1=   614349824 LExtra=           0 Total=   3035121154
 MaxDsk=          -1 SrtSym=           T ITran=            4
 JobTyp=2 Pass  1:  I=   1 to  24.
 (rs|ai) integrals will be sorted in core.
 SymMOI:  orbitals are not symmetric.
 DoSCS=T DFT=T ScalE2(SS,OS)=  0.270000  0.270000
 Spin components of T(2) and E(2):
     alpha-alpha T2 =       0.6461076822D-01 E2=     -0.4672835508D-01
     alpha-beta  T2 =       0.3968648904D+00 E2=     -0.2894836318D+00
     beta-beta   T2 =       0.6928725288D-01 E2=     -0.4544322199D-01
 E2(B2PLYPD3) =    -0.3816552089D+00 E(B2PLYPD3) =    -0.30794613442500D+03
 (S**2,0)=  0.77887D+00           (S**2,1)=  0.74973D+00
 Scaling Projection term by:   0.270000
 E(PUHF)=      -0.30757090377D+03        E(PMP2)=      -0.30794700379D+03
          IDoAtm=111111111111111
          Differentiating once with respect to electric field.
                with respect to dipole field.
          Differentiating once with respect to nuclear coordinates.
 Keep R1 and R2 ints in memory in canonical form, NReq=2252584249.
          There are     1 degrees of freedom in the 1st order CPHF.  IDoFFX=0 NUNeed=     1.
 LinEq1:  Iter=  0 NonCon=     1 RMS=9.77D-04 Max=6.55D-02 NDo=     1
 AX will form     1 AO Fock derivatives at one time.
 LinEq1:  Iter=  1 NonCon=     1 RMS=3.36D-04 Max=1.25D-02 NDo=     1
 LinEq1:  Iter=  2 NonCon=     1 RMS=2.08D-04 Max=9.49D-03 NDo=     1
 LinEq1:  Iter=  3 NonCon=     1 RMS=1.01D-04 Max=5.15D-03 NDo=     1
 LinEq1:  Iter=  4 NonCon=     1 RMS=7.44D-05 Max=4.19D-03 NDo=     1
 LinEq1:  Iter=  5 NonCon=     1 RMS=2.96D-05 Max=1.29D-03 NDo=     1
 LinEq1:  Iter=  6 NonCon=     1 RMS=2.01D-05 Max=7.74D-04 NDo=     1
 LinEq1:  Iter=  7 NonCon=     1 RMS=7.54D-06 Max=1.32D-04 NDo=     1
 LinEq1:  Iter=  8 NonCon=     1 RMS=5.36D-06 Max=1.72D-04 NDo=     1
 LinEq1:  Iter=  9 NonCon=     1 RMS=2.98D-06 Max=7.20D-05 NDo=     1
 LinEq1:  Iter= 10 NonCon=     1 RMS=1.06D-06 Max=1.79D-05 NDo=     1
 LinEq1:  Iter= 11 NonCon=     1 RMS=4.12D-07 Max=7.08D-06 NDo=     1
 LinEq1:  Iter= 12 NonCon=     1 RMS=1.87D-07 Max=3.45D-06 NDo=     1
 LinEq1:  Iter= 13 NonCon=     1 RMS=7.72D-08 Max=1.59D-06 NDo=     1
 LinEq1:  Iter= 14 NonCon=     1 RMS=2.56D-08 Max=5.17D-07 NDo=     1
 LinEq1:  Iter= 15 NonCon=     1 RMS=8.08D-09 Max=1.35D-07 NDo=     1
 LinEq1:  Iter= 16 NonCon=     1 RMS=2.96D-09 Max=9.07D-08 NDo=     1
 LinEq1:  Iter= 17 NonCon=     1 RMS=1.31D-09 Max=3.39D-08 NDo=     1
 LinEq1:  Iter= 18 NonCon=     1 RMS=4.78D-10 Max=2.17D-08 NDo=     1
 LinEq1:  Iter= 19 NonCon=     1 RMS=1.64D-10 Max=7.49D-09 NDo=     1
 LinEq1:  Iter= 20 NonCon=     1 RMS=5.12D-11 Max=2.00D-09 NDo=     1
 LinEq1:  Iter= 21 NonCon=     0 RMS=1.55D-11 Max=3.62D-10 NDo=     1
 Linear equations converged to 1.000D-10 1.000D-09 after    21 iterations.
 End of Minotr F.D. properties file   721 does not exist.
 End of Minotr F.D. properties file   722 does not exist.
 End of Minotr F.D. properties file   788 does not exist.
 Symmetrizing basis deriv contribution to polar:
 IMax=3 JMax=2 DiffMx= 0.00D+00
 G2DrvN: will do    16 centers at a time, making    1 passes.
 Calling FoFCou, ICntrl=  3107 FMM=F I1Cent=   0 AccDes= 0.00D+00.
 End of G2Drv F.D. properties file   721 does not exist.
 End of G2Drv F.D. properties file   722 does not exist.
 End of G2Drv F.D. properties file   788 does not exist.
 DoSCS=T DFT=T ScalE2(SS,OS)=  0.270000  0.270000
 R2 and R3 integrals will be kept in memory, NReq=  3583069605.
 DD1Dir will call FoFMem   1 times, MxPair=      1776
 NAB=   600 NAA=   300 NBB=   276.
 Discarding MO integrals.

 **********************************************************************

            Population analysis using the SCF Density.

 **********************************************************************

 Orbital symmetries:
 Alpha Orbitals:
       Occupied  (A) (A) (A) (A) (A) (A) (A) (A) (A) (A) (A) (A)
                 (A) (A) (A) (A) (A) (A) (A) (A) (A) (A) (A) (A)
                 (A)
       Virtual   (A) (A) (A) (A) (A) (A) (A) (A) (A) (A) (A) (A)
                 (A) (A) (A) (A) (A) (A) (A) (A) (A) (A) (A) (A)
                 (A) (A) (A) (A) (A) (A) (A) (A) (A) (A) (A) (A)
                 (A) (A) (A) (A) (A) (A) (A) (A) (A) (A) (A) (A)
                 (A) (A) (A) (A) (A) (A) (A) (A) (A) (A) (A) (A)
                 (A) (A) (A) (A) (A) (A) (A) (A) (A) (A) (A) (A)
                 (A) (A) (A) (A) (A) (A) (A) (A) (A) (A) (A) (A)
                 (A) (A) (A) (A) (A) (A) (A) (A) (A) (A) (A) (A)
                 (A) (A) (A) (A) (A) (A) (A) (A) (A) (A) (A) (A)
                 (A) (A) (A) (A) (A) (A) (A) (A) (A) (A) (A) (A)
                 (A) (A) (A) (A) (A) (A) (A) (A) (A) (A) (A) (A)
                 (A) (A) (A) (A) (A) (A) (A) (A) (A) (A) (A) (A)
                 (A) (A) (A) (A) (A) (A) (A) (A) (A) (A) (A) (A)
                 (A) (A) (A) (A) (A) (A) (A) (A) (A) (A) (A) (A)
                 (A) (A) (A) (A) (A) (A) (A) (A) (A) (A) (A) (A)
                 (A) (A) (A) (A) (A) (A) (A) (A) (A) (A) (A) (A)
                 (A) (A) (A) (A) (A) (A) (A) (A) (A) (A) (A) (A)
                 (A) (A) (A) (A) (A) (A) (A) (A) (A) (A) (A) (A)
                 (A) (A) (A) (A) (A) (A) (A) (A) (A) (A) (A) (A)
                 (A) (A) (A) (A) (A) (A) (A) (A) (A) (A) (A) (A)
                 (A) (A) (A) (A) (A) (A) (A) (A) (A) (A) (A) (A)
                 (A) (A) (A) (A) (A) (A) (A) (A) (A) (A) (A) (A)
                 (A) (A) (A) (A) (A) (A) (A) (A) (A) (A) (A) (A)
                 (A) (A) (A) (A) (A)
 Beta  Orbitals:
       Occupied  (A) (A) (A) (A) (A) (A) (A) (A) (A) (A) (A) (A)
                 (A) (A) (A) (A) (A) (A) (A) (A) (A) (A) (A) (A)
       Virtual   (A) (A) (A) (A) (A) (A) (A) (A) (A) (A) (A) (A)
                 (A) (A) (A) (A) (A) (A) (A) (A) (A) (A) (A) (A)
                 (A) (A) (A) (A) (A) (A) (A) (A) (A) (A) (A) (A)
                 (A) (A) (A) (A) (A) (A) (A) (A) (A) (A) (A) (A)
                 (A) (A) (A) (A) (A) (A) (A) (A) (A) (A) (A) (A)
                 (A) (A) (A) (A) (A) (A) (A) (A) (A) (A) (A) (A)
                 (A) (A) (A) (A) (A) (A) (A) (A) (A) (A) (A) (A)
                 (A) (A) (A) (A) (A) (A) (A) (A) (A) (A) (A) (A)
                 (A) (A) (A) (A) (A) (A) (A) (A) (A) (A) (A) (A)
                 (A) (A) (A) (A) (A) (A) (A) (A) (A) (A) (A) (A)
                 (A) (A) (A) (A) (A) (A) (A) (A) (A) (A) (A) (A)
                 (A) (A) (A) (A) (A) (A) (A) (A) (A) (A) (A) (A)
                 (A) (A) (A) (A) (A) (A) (A) (A) (A) (A) (A) (A)
                 (A) (A) (A) (A) (A) (A) (A) (A) (A) (A) (A) (A)
                 (A) (A) (A) (A) (A) (A) (A) (A) (A) (A) (A) (A)
                 (A) (A) (A) (A) (A) (A) (A) (A) (A) (A) (A) (A)
                 (A) (A) (A) (A) (A) (A) (A) (A) (A) (A) (A) (A)
                 (A) (A) (A) (A) (A) (A) (A) (A) (A) (A) (A) (A)
                 (A) (A) (A) (A) (A) (A) (A) (A) (A) (A) (A) (A)
                 (A) (A) (A) (A) (A) (A) (A) (A) (A) (A) (A) (A)
                 (A) (A) (A) (A) (A) (A) (A) (A) (A) (A) (A) (A)
                 (A) (A) (A) (A) (A) (A) (A) (A) (A) (A) (A) (A)
                 (A) (A) (A) (A) (A) (A) (A) (A) (A) (A) (A) (A)
                 (A) (A) (A) (A) (A) (A)
 The electronic state is 2-A.
 Alpha  occ. eigenvalues --  -19.78546 -19.78469 -10.65908 -10.64238 -10.63652
 Alpha  occ. eigenvalues --  -10.61284  -1.28800  -1.02427  -0.92330  -0.80659
 Alpha  occ. eigenvalues --   -0.77678  -0.66288  -0.60543  -0.56604  -0.55914
 Alpha  occ. eigenvalues --   -0.54858  -0.50076  -0.48438  -0.46987  -0.44874
 Alpha  occ. eigenvalues --   -0.44034  -0.37483  -0.36247  -0.32920  -0.30795
 Alpha virt. eigenvalues --    0.05746   0.08222   0.10202   0.11195   0.13618
 Alpha virt. eigenvalues --    0.14158   0.15333   0.15464   0.17155   0.18891
 Alpha virt. eigenvalues --    0.20101   0.23918   0.26106   0.28383   0.30478
 Alpha virt. eigenvalues --    0.33255   0.34225   0.35190   0.37156   0.37713
 Alpha virt. eigenvalues --    0.39941   0.43672   0.45898   0.46861   0.47693
 Alpha virt. eigenvalues --    0.49441   0.50848   0.51255   0.51806   0.52785
 Alpha virt. eigenvalues --    0.53253   0.53788   0.54693   0.56143   0.56543
 Alpha virt. eigenvalues --    0.59446   0.60814   0.62217   0.66972   0.69216
 Alpha virt. eigenvalues --    0.69551   0.71295   0.72080   0.74159   0.77474
 Alpha virt. eigenvalues --    0.78180   0.81204   0.85605   0.88356   0.91163
 Alpha virt. eigenvalues --    0.92688   0.94036   0.95146   0.97874   0.99666
 Alpha virt. eigenvalues --    1.01481   1.02638   1.04493   1.06982   1.07899
 Alpha virt. eigenvalues --    1.09447   1.10560   1.12325   1.14720   1.15322
 Alpha virt. eigenvalues --    1.16962   1.19117   1.20333   1.21222   1.23070
 Alpha virt. eigenvalues --    1.24602   1.27022   1.28046   1.30650   1.34398
 Alpha virt. eigenvalues --    1.36382   1.38834   1.39426   1.41470   1.42312
 Alpha virt. eigenvalues --    1.43315   1.45535   1.47981   1.49479   1.51476
 Alpha virt. eigenvalues --    1.52684   1.54870   1.57728   1.59061   1.63109
 Alpha virt. eigenvalues --    1.65131   1.72002   1.78918   1.80581   1.85347
 Alpha virt. eigenvalues --    1.95604   1.98913   2.01123   2.06635   2.13987
 Alpha virt. eigenvalues --    2.16403   2.19530   2.25289   2.27887   2.29065
 Alpha virt. eigenvalues --    2.33166   2.34819   2.37232   2.38736   2.39497
 Alpha virt. eigenvalues --    2.43626   2.48111   2.49550   2.51166   2.53564
 Alpha virt. eigenvalues --    2.60434   2.65102   2.69001   2.70301   2.72812
 Alpha virt. eigenvalues --    2.74831   2.79064   2.84536   2.85592   2.86057
 Alpha virt. eigenvalues --    2.88485   2.92126   2.92631   2.93993   2.95324
 Alpha virt. eigenvalues --    2.96955   2.98068   3.00669   3.02456   3.02852
 Alpha virt. eigenvalues --    3.03820   3.05123   3.06215   3.09979   3.11834
 Alpha virt. eigenvalues --    3.12395   3.15603   3.16271   3.17014   3.17702
 Alpha virt. eigenvalues --    3.19149   3.20269   3.22109   3.23313   3.26078
 Alpha virt. eigenvalues --    3.26559   3.32399   3.34995   3.39082   3.40065
 Alpha virt. eigenvalues --    3.41777   3.42773   3.44656   3.46482   3.48912
 Alpha virt. eigenvalues --    3.51482   3.53697   3.53941   3.55882   3.56731
 Alpha virt. eigenvalues --    3.56986   3.58767   3.60315   3.61033   3.62788
 Alpha virt. eigenvalues --    3.65799   3.69352   3.73533   3.77166   3.78943
 Alpha virt. eigenvalues --    3.81258   3.82203   3.85944   3.87589   3.89108
 Alpha virt. eigenvalues --    3.89628   3.94719   3.95867   3.96263   3.97634
 Alpha virt. eigenvalues --    3.98698   4.00793   4.03470   4.04156   4.05884
 Alpha virt. eigenvalues --    4.07889   4.09032   4.10984   4.14887   4.18118
 Alpha virt. eigenvalues --    4.18455   4.20399   4.24055   4.24923   4.26058
 Alpha virt. eigenvalues --    4.27380   4.30322   4.33689   4.34858   4.35777
 Alpha virt. eigenvalues --    4.37367   4.39902   4.41710   4.47687   4.50466
 Alpha virt. eigenvalues --    4.55326   4.60035   4.61723   4.64036   4.67591
 Alpha virt. eigenvalues --    4.71063   4.74254   4.81102   4.82859   4.85582
 Alpha virt. eigenvalues --    4.89595   4.93833   4.95799   4.98293   5.00097
 Alpha virt. eigenvalues --    5.02135   5.03245   5.07053   5.08608   5.10390
 Alpha virt. eigenvalues --    5.12745   5.20880   5.23398   5.27595   5.31457
 Alpha virt. eigenvalues --    5.31941   5.35437   5.37098   5.37179   5.39684
 Alpha virt. eigenvalues --    5.40052   5.40918   5.42807   5.45367   5.49229
 Alpha virt. eigenvalues --    5.51686   5.54935   5.68894   5.70721   5.77778
 Alpha virt. eigenvalues --    5.83452   5.93326   5.93644   5.97075   6.02838
 Alpha virt. eigenvalues --    6.05191   6.08529   6.10693   6.15038   6.30122
 Alpha virt. eigenvalues --    6.39867   6.43715   6.55554   6.68981   6.76951
 Alpha virt. eigenvalues --    6.81411   6.89381   6.97870   7.07735   7.09773
 Alpha virt. eigenvalues --    7.20467   7.41793   7.46700   7.64012   7.79088
 Alpha virt. eigenvalues --   10.04134  10.27271  10.96167  13.43965  13.82164
 Alpha virt. eigenvalues --   14.18000
  Beta  occ. eigenvalues --  -19.78411 -19.77081 -10.65914 -10.63895 -10.62676
  Beta  occ. eigenvalues --  -10.61200  -1.27129  -0.99959  -0.91146  -0.79053
  Beta  occ. eigenvalues --   -0.77187  -0.63358  -0.58058  -0.55766  -0.54895
  Beta  occ. eigenvalues --   -0.54213  -0.48635  -0.47553  -0.45265  -0.44340
  Beta  occ. eigenvalues --   -0.43275  -0.35844  -0.33532  -0.31897
  Beta virt. eigenvalues --   -0.05382   0.06314   0.08531   0.10317   0.11463
  Beta virt. eigenvalues --    0.13841   0.14774   0.15376   0.15492   0.17371
  Beta virt. eigenvalues --    0.19204   0.20630   0.24314   0.26671   0.28517
  Beta virt. eigenvalues --    0.30680   0.33751   0.34353   0.35758   0.37868
  Beta virt. eigenvalues --    0.38170   0.40150   0.44480   0.46079   0.47784
  Beta virt. eigenvalues --    0.48133   0.49968   0.51244   0.51433   0.52277
  Beta virt. eigenvalues --    0.53019   0.53383   0.54920   0.55160   0.56307
  Beta virt. eigenvalues --    0.57370   0.60272   0.61893   0.62717   0.67140
  Beta virt. eigenvalues --    0.69555   0.70493   0.71961   0.73055   0.74498
  Beta virt. eigenvalues --    0.77801   0.78452   0.81617   0.86428   0.88773
  Beta virt. eigenvalues --    0.91262   0.92951   0.94133   0.95541   0.98452
  Beta virt. eigenvalues --    0.99918   1.01728   1.03248   1.04667   1.07141
  Beta virt. eigenvalues --    1.08034   1.09625   1.10726   1.12602   1.14947
  Beta virt. eigenvalues --    1.15488   1.17255   1.19650   1.21240   1.21371
  Beta virt. eigenvalues --    1.23402   1.24937   1.27084   1.28481   1.30956
  Beta virt. eigenvalues --    1.34630   1.36953   1.38893   1.39624   1.41602
  Beta virt. eigenvalues --    1.42421   1.43694   1.46224   1.48651   1.49743
  Beta virt. eigenvalues --    1.51789   1.53315   1.55276   1.58061   1.59347
  Beta virt. eigenvalues --    1.63212   1.65394   1.72845   1.79292   1.80843
  Beta virt. eigenvalues --    1.87643   1.96361   1.99596   2.01608   2.07703
  Beta virt. eigenvalues --    2.14463   2.18386   2.19981   2.25473   2.28160
  Beta virt. eigenvalues --    2.29725   2.34053   2.35208   2.37832   2.38936
  Beta virt. eigenvalues --    2.40450   2.44132   2.48341   2.49864   2.51319
  Beta virt. eigenvalues --    2.53810   2.61185   2.65330   2.69755   2.71612
  Beta virt. eigenvalues --    2.73040   2.75141   2.79402   2.84660   2.85919
  Beta virt. eigenvalues --    2.86262   2.89186   2.92162   2.93163   2.94511
  Beta virt. eigenvalues --    2.95586   2.97782   2.98898   3.01202   3.03037
  Beta virt. eigenvalues --    3.03601   3.04421   3.05719   3.06661   3.10843
  Beta virt. eigenvalues --    3.12307   3.12871   3.15987   3.16621   3.17175
  Beta virt. eigenvalues --    3.17841   3.19763   3.20496   3.22410   3.25187
  Beta virt. eigenvalues --    3.26964   3.27756   3.33494   3.35389   3.39808
  Beta virt. eigenvalues --    3.40284   3.42104   3.43034   3.44728   3.46636
  Beta virt. eigenvalues --    3.49452   3.51761   3.53740   3.54213   3.56409
  Beta virt. eigenvalues --    3.56761   3.57541   3.58865   3.60439   3.61311
  Beta virt. eigenvalues --    3.62863   3.66124   3.69884   3.74211   3.77364
  Beta virt. eigenvalues --    3.79495   3.81795   3.82349   3.86068   3.87945
  Beta virt. eigenvalues --    3.89171   3.89885   3.94939   3.95933   3.96326
  Beta virt. eigenvalues --    3.97944   3.98696   4.00941   4.03571   4.04162
  Beta virt. eigenvalues --    4.06167   4.07976   4.09378   4.11238   4.15167
  Beta virt. eigenvalues --    4.18283   4.18581   4.20515   4.24380   4.25066
  Beta virt. eigenvalues --    4.26313   4.27812   4.30591   4.33926   4.35667
  Beta virt. eigenvalues --    4.36204   4.37622   4.40613   4.42005   4.48183
  Beta virt. eigenvalues --    4.50898   4.55779   4.60375   4.62019   4.64815
  Beta virt. eigenvalues --    4.68229   4.71412   4.75015   4.81251   4.83215
  Beta virt. eigenvalues --    4.86029   4.90020   4.94087   4.96269   4.98340
  Beta virt. eigenvalues --    5.00276   5.02308   5.03555   5.07202   5.09316
  Beta virt. eigenvalues --    5.10887   5.13249   5.21369   5.24149   5.28368
  Beta virt. eigenvalues --    5.31624   5.32455   5.35717   5.37220   5.37367
  Beta virt. eigenvalues --    5.40088   5.40202   5.41349   5.43386   5.45377
  Beta virt. eigenvalues --    5.49515   5.51918   5.55098   5.69658   5.71406
  Beta virt. eigenvalues --    5.78549   5.84574   5.93379   5.94267   5.97300
  Beta virt. eigenvalues --    6.02874   6.05997   6.09615   6.11041   6.16108
  Beta virt. eigenvalues --    6.30368   6.40519   6.45173   6.57482   6.69791
  Beta virt. eigenvalues --    6.78299   6.83272   6.90797   6.99414   7.09188
  Beta virt. eigenvalues --    7.10276   7.22255   7.43016   7.47611   7.65429
  Beta virt. eigenvalues --    7.79928  10.04752  10.27935  10.97088  13.43967
  Beta virt. eigenvalues --   13.82256  14.18542
          Condensed to atoms (all electrons):
               1          2          3          4          5          6
     1  C    5.291708   0.593645   0.402961  -0.006351   0.003289   0.000070
     2  C    0.593645   4.928681  -0.050170  -0.000106   0.000884   0.000198
     3  H    0.402961  -0.050170   0.499949   0.000184  -0.000447  -0.000041
     4  C   -0.006351  -0.000106   0.000184   4.585559   0.395933   0.398565
     5  H    0.003289   0.000884  -0.000447   0.395933   0.682224  -0.035022
     6  H    0.000070   0.000198  -0.000041   0.398565  -0.035022   0.593111
     7  H   -0.000245   0.000170   0.000005   0.405770  -0.062029  -0.028831
     8  O    0.001993   0.001525   0.000247   0.311976  -0.050003  -0.027530
     9  O   -0.070971  -0.005637   0.000777  -0.046127  -0.005788   0.006931
    10  H    0.179727  -0.001619  -0.008694   0.003802   0.005361  -0.000561
    11  C   -0.053952   0.325700   0.005450  -0.000800  -0.000731   0.000158
    12  H   -0.000259  -0.034790   0.000131   0.000012   0.000380  -0.000330
    13  H    0.001742  -0.040582  -0.000237   0.000068  -0.000063  -0.000011
    14  H   -0.000244  -0.035375  -0.000292  -0.000002  -0.000020  -0.000000
    15  H   -0.050660   0.403658  -0.006691  -0.000026   0.000018   0.000003
               7          8          9         10         11         12
     1  C   -0.000245   0.001993  -0.070971   0.179727  -0.053952  -0.000259
     2  C    0.000170   0.001525  -0.005637  -0.001619   0.325700  -0.034790
     3  H    0.000005   0.000247   0.000777  -0.008694   0.005450   0.000131
     4  C    0.405770   0.311976  -0.046127   0.003802  -0.000800   0.000012
     5  H   -0.062029  -0.050003  -0.005788   0.005361  -0.000731   0.000380
     6  H   -0.028831  -0.027530   0.006931  -0.000561   0.000158  -0.000330
     7  H    0.635216  -0.041484   0.006208  -0.000187   0.000046   0.000078
     8  O   -0.041484   7.956754   0.059744  -0.034310   0.001425   0.001740
     9  O    0.006208   0.059744   8.028391   0.241930   0.000708   0.003923
    10  H   -0.000187  -0.034310   0.241930   0.394448  -0.005319   0.003187
    11  C    0.000046   0.001425   0.000708  -0.005319   4.809552   0.409787
    12  H    0.000078   0.001740   0.003923   0.003187   0.409787   0.531280
    13  H   -0.000014  -0.000612   0.000250   0.000372   0.405914  -0.022634
    14  H    0.000008   0.000606  -0.000362  -0.000066   0.405003  -0.026106
    15  H    0.000001  -0.000017  -0.000303   0.001917  -0.038837   0.004818
              13         14         15
     1  C    0.001742  -0.000244  -0.050660
     2  C   -0.040582  -0.035375   0.403658
     3  H   -0.000237  -0.000292  -0.006691
     4  C    0.000068  -0.000002  -0.000026
     5  H   -0.000063  -0.000020   0.000018
     6  H   -0.000011  -0.000000   0.000003
     7  H   -0.000014   0.000008   0.000001
     8  O   -0.000612   0.000606  -0.000017
     9  O    0.000250  -0.000362  -0.000303
    10  H    0.000372  -0.000066   0.001917
    11  C    0.405914   0.405003  -0.038837
    12  H   -0.022634  -0.026106   0.004818
    13  H    0.595130  -0.036559  -0.001792
    14  H   -0.036559   0.594241  -0.003215
    15  H   -0.001792  -0.003215   0.549861
          Atomic-Atomic Spin Densities.
               1          2          3          4          5          6
     1  C    0.814507  -0.017055  -0.002399   0.000420  -0.004952   0.000126
     2  C   -0.017055  -0.169125   0.002847  -0.000170   0.000130  -0.000007
     3  H   -0.002399   0.002847   0.024487   0.000017   0.000923  -0.000007
     4  C    0.000420  -0.000170   0.000017  -0.003584   0.004357   0.000330
     5  H   -0.004952   0.000130   0.000923   0.004357   0.001580  -0.000455
     6  H    0.000126  -0.000007  -0.000007   0.000330  -0.000455  -0.001467
     7  H    0.001416  -0.000070  -0.000156  -0.002550  -0.001313   0.000882
     8  O    0.011809  -0.000872  -0.000603  -0.000707  -0.000680   0.000064
     9  O   -0.084783   0.004364   0.004228  -0.001003   0.003835  -0.000181
    10  H    0.049271   0.000487  -0.001176   0.000763  -0.003365   0.000045
    11  C   -0.011077   0.016419   0.001793  -0.000012   0.000233  -0.000024
    12  H    0.003103   0.000165  -0.000214  -0.000013  -0.000078   0.000030
    13  H    0.000130   0.003346  -0.000042   0.000010  -0.000015   0.000002
    14  H    0.000504   0.002671  -0.000086   0.000004  -0.000006   0.000000
    15  H   -0.015301   0.010987  -0.005825   0.000024  -0.000137   0.000002
               7          8          9         10         11         12
     1  C    0.001416   0.011809  -0.084783   0.049271  -0.011077   0.003103
     2  C   -0.000070  -0.000872   0.004364   0.000487   0.016419   0.000165
     3  H   -0.000156  -0.000603   0.004228  -0.001176   0.001793  -0.000214
     4  C   -0.002550  -0.000707  -0.001003   0.000763  -0.000012  -0.000013
     5  H   -0.001313  -0.000680   0.003835  -0.003365   0.000233  -0.000078
     6  H    0.000882   0.000064  -0.000181   0.000045  -0.000024   0.000030
     7  H    0.004499  -0.000642  -0.000908   0.001476  -0.000027   0.000029
     8  O   -0.000642   0.047438  -0.037045   0.008853  -0.001297   0.000733
     9  O   -0.000908  -0.037045   0.494029  -0.033268   0.002833  -0.001851
    10  H    0.001476   0.008853  -0.033268  -0.098094  -0.002267   0.000753
    11  C   -0.000027  -0.001297   0.002833  -0.002267   0.045332  -0.003523
    12  H    0.000029   0.000733  -0.001851   0.000753  -0.003523  -0.000554
    13  H    0.000004   0.000115  -0.000104   0.000020  -0.002974   0.000543
    14  H    0.000001   0.000041  -0.000128   0.000203  -0.004501   0.000900
    15  H    0.000010   0.000180  -0.000644   0.000779  -0.014983   0.000758
              13         14         15
     1  C    0.000130   0.000504  -0.015301
     2  C    0.003346   0.002671   0.010987
     3  H   -0.000042  -0.000086  -0.005825
     4  C    0.000010   0.000004   0.000024
     5  H   -0.000015  -0.000006  -0.000137
     6  H    0.000002   0.000000   0.000002
     7  H    0.000004   0.000001   0.000010
     8  O    0.000115   0.000041   0.000180
     9  O   -0.000104  -0.000128  -0.000644
    10  H    0.000020   0.000203   0.000779
    11  C   -0.002974  -0.004501  -0.014983
    12  H    0.000543   0.000900   0.000758
    13  H   -0.008151   0.001837   0.000642
    14  H    0.001837  -0.006585   0.001314
    15  H    0.000642   0.001314   0.079161
 Mulliken charges and spin densities:
               1          2
     1  C   -0.292454   0.745720
     2  C   -0.086182  -0.145884
     3  H    0.156868   0.023786
     4  C   -0.048458  -0.002114
     5  H    0.066013   0.000057
     6  H    0.093291  -0.000661
     7  H    0.085287   0.002653
     8  O   -0.182055   0.027388
     9  O   -0.219676   0.349375
    10  H    0.220012  -0.075521
    11  C   -0.264105   0.025926
    12  H    0.128782   0.000779
    13  H    0.099030  -0.004638
    14  H    0.102382  -0.003833
    15  H    0.141264   0.056969
 Sum of Mulliken charges =  -0.00000   1.00000
 Mulliken charges and spin densities with hydrogens summed into heavy atoms:
               1          2
     1  C   -0.135586   0.769506
     2  C    0.055082  -0.088916
     4  C    0.196133  -0.000066
     8  O   -0.182055   0.027388
     9  O    0.000336   0.273854
    11  C    0.066089   0.018234
 APT charges:
               1
     1  C    0.235672
     2  C   -0.091102
     3  H    0.002426
     4  C    0.443567
     5  H   -0.042347
     6  H   -0.004561
     7  H   -0.035658
     8  O   -0.408637
     9  O    0.127730
    10  H   -0.307649
    11  C    0.045801
    12  H    0.028938
    13  H   -0.002454
    14  H   -0.003335
    15  H    0.011609
 Sum of APT charges =  -0.00000
 APT charges with hydrogens summed into heavy atoms:
               1
     1  C    0.238098
     2  C   -0.079493
     4  C    0.361000
     8  O   -0.408637
     9  O   -0.179919
    11  C    0.068949
 Electronic spatial extent (au):  <R**2>=            797.0013
 Charge=              0.0000 electrons
 Dipole moment (field-independent basis, Debye):
    X=              0.9551    Y=              0.8365    Z=             -2.1735  Tot=              2.5171
 Quadrupole moment (field-independent basis, Debye-Ang):
   XX=            -33.1705   YY=            -36.4617   ZZ=            -39.7520
   XY=             -0.7701   XZ=              2.2421   YZ=             -0.1542
 Traceless Quadrupole moment (field-independent basis, Debye-Ang):
   XX=              3.2909   YY=             -0.0003   ZZ=             -3.2906
   XY=             -0.7701   XZ=              2.2421   YZ=             -0.1542
 Octapole moment (field-independent basis, Debye-Ang**2):
  XXX=            -12.8863  YYY=              3.5278  ZZZ=              1.4020  XYY=             -0.8366
  XXY=             -2.0241  XXZ=             -7.4930  XZZ=             -3.8782  YZZ=             -3.0032
  YYZ=             -0.5349  XYZ=             -2.2030
 Hexadecapole moment (field-independent basis, Debye-Ang**3):
 XXXX=           -671.9409 YYYY=           -195.1640 ZZZZ=           -136.7887 XXXY=             -1.5722
 XXXZ=             -2.8151 YYYX=              6.2151 YYYZ=             -0.2538 ZZZX=             -0.3966
 ZZZY=              2.4434 XXYY=           -154.6740 XXZZ=           -138.8233 YYZZ=            -55.8961
 XXYZ=             -2.3801 YYXZ=             -1.8069 ZZXY=              1.1732
 N-N= 2.384084792505D+02 E-N=-1.197129880777D+03  KE= 3.063036334507D+02
  Exact polarizability:  93.617   3.013  64.015  -4.539   0.618  50.962
 Approx polarizability:  79.306  -0.123  72.628  -5.865   2.638  61.150
                          Isotropic Fermi Contact Couplings
        Atom                 a.u.       MegaHertz       Gauss      10(-4) cm-1
     1  C(13)              0.17741     199.43921      71.16487      66.52576
     2  C(13)              0.00284       3.18848       1.13773       1.06356
     3  H(1)               0.01248      55.77298      19.90118      18.60386
     4  C(13)             -0.00356      -3.99750      -1.42641      -1.33342
     5  H(1)               0.00286      12.77438       4.55822       4.26107
     6  H(1)              -0.00005      -0.24379      -0.08699      -0.08132
     7  H(1)               0.00074       3.30514       1.17936       1.10248
     8  O(17)              0.01518      -9.20147      -3.28331      -3.06928
     9  O(17)              0.02850     -17.27904      -6.16559      -5.76367
    10  H(1)              -0.02649    -118.42679     -42.25762     -39.50292
    11  C(13)              0.02349      26.40968       9.42363       8.80932
    12  H(1)              -0.00025      -1.10044      -0.39267      -0.36707
    13  H(1)              -0.00093      -4.17727      -1.49056      -1.39339
    14  H(1)              -0.00078      -3.48510      -1.24357      -1.16251
    15  H(1)               0.02584     115.48417      41.20762      38.52137
 --------------------------------------------------------
       Center         ----  Spin Dipole Couplings  ----
                      3XX-RR        3YY-RR        3ZZ-RR
 --------------------------------------------------------
     1   Atom        0.312861     -0.248814     -0.064046
     2   Atom        0.031722      0.007880     -0.039602
     3   Atom       -0.015103      0.048251     -0.033148
     4   Atom        0.000777     -0.002440      0.001664
     5   Atom        0.001932     -0.005588      0.003655
     6   Atom        0.000847     -0.002543      0.001695
     7   Atom        0.005586     -0.003901     -0.001685
     8   Atom        0.193633     -0.091535     -0.102098
     9   Atom        0.643472     -0.570488     -0.072984
    10   Atom        0.116083     -0.059814     -0.056269
    11   Atom       -0.014741      0.033863     -0.019122
    12   Atom       -0.001354      0.008759     -0.007405
    13   Atom       -0.002218      0.004164     -0.001946
    14   Atom        0.001510      0.001714     -0.003223
    15   Atom        0.006062     -0.001911     -0.004150
 --------------------------------------------------------
                        XY            XZ            YZ
 --------------------------------------------------------
     1   Atom        0.305258     -0.427901     -0.188376
     2   Atom       -0.036654     -0.044860      0.004947
     3   Atom       -0.012467     -0.012790     -0.011586
     4   Atom        0.003452      0.006360     -0.002349
     5   Atom        0.001306      0.006143     -0.002085
     6   Atom        0.002028      0.003970      0.001741
     7   Atom       -0.000920      0.004924     -0.000733
     8   Atom        0.193453     -0.166375     -0.124058
     9   Atom        0.570481     -1.027787     -0.403995
    10   Atom        0.125988     -0.125013     -0.062616
    11   Atom       -0.010817     -0.000584     -0.007004
    12   Atom       -0.004003     -0.001831     -0.002590
    13   Atom       -0.002645     -0.001696      0.003720
    14   Atom       -0.004637      0.001515     -0.001893
    15   Atom       -0.001036     -0.007471     -0.000714
 --------------------------------------------------------


 ---------------------------------------------------------------------------------
              Anisotropic Spin Dipole Couplings in Principal Axis System
 ---------------------------------------------------------------------------------

       Atom             a.u.   MegaHertz   Gauss  10(-4) cm-1        Axes

              Baa    -0.3828   -51.365   -18.328   -17.133 -0.3966  0.9179  0.0100
     1 C(13)  Bbb    -0.3414   -45.808   -16.345   -15.280  0.4718  0.1945  0.8600
              Bcc     0.7241    97.173    34.674    32.413  0.7875  0.3458 -0.5102
 
              Baa    -0.0634    -8.510    -3.037    -2.839  0.4766  0.1854  0.8593
     2 C(13)  Bbb    -0.0093    -1.249    -0.446    -0.417  0.3505  0.8564 -0.3792
              Bcc     0.0727     9.759     3.482     3.255  0.8062 -0.4819 -0.3432
 
              Baa    -0.0426   -22.747    -8.117    -7.588  0.4790  0.1754  0.8601
     3 H(1)   Bbb    -0.0090    -4.789    -1.709    -1.597  0.8627  0.0871 -0.4982
              Bcc     0.0516    27.536     9.825     9.185 -0.1623  0.9806 -0.1096
 
              Baa    -0.0082    -1.094    -0.390    -0.365  0.6078 -0.5873 -0.5344
     4 C(13)  Bbb     0.0005     0.068     0.024     0.023  0.3801  0.8061 -0.4536
              Bcc     0.0076     1.026     0.366     0.342  0.6972  0.0726  0.7132
 
              Baa    -0.0071    -3.796    -1.354    -1.266 -0.3797  0.8435  0.3799
     5 H(1)   Bbb    -0.0019    -1.024    -0.365    -0.341  0.6601  0.5347 -0.5275
              Bcc     0.0090     4.820     1.720     1.608  0.6481 -0.0504  0.7599
 
              Baa    -0.0035    -1.866    -0.666    -0.622 -0.4688  0.8811  0.0629
     6 H(1)   Bbb    -0.0026    -1.378    -0.492    -0.460 -0.6009 -0.3703  0.7084
              Bcc     0.0061     3.244     1.158     1.082  0.6474  0.2942  0.7030
 
              Baa    -0.0043    -2.317    -0.827    -0.773 -0.3176  0.5815  0.7490
     7 H(1)   Bbb    -0.0038    -2.048    -0.731    -0.683  0.3329  0.8080 -0.4861
              Bcc     0.0082     4.365     1.558     1.456  0.8879 -0.0949  0.4502
 
              Baa    -0.2222    16.078     5.737     5.363 -0.0875  0.7510  0.6545
     8 O(17)  Bbb    -0.1565    11.325     4.041     3.778  0.5807 -0.4954  0.6460
              Bcc     0.3787   -27.403    -9.778    -9.141  0.8094  0.4366 -0.3927
 
              Baa    -0.8033    58.128    20.741    19.389  0.6071 -0.1262  0.7845
     9 O(17)  Bbb    -0.7956    57.569    20.542    19.203 -0.1710  0.9434  0.2842
              Bcc     1.5989  -115.697   -41.284   -38.592  0.7760  0.3067 -0.5511
 
              Baa    -0.1263   -67.390   -24.046   -22.479 -0.5624  0.7610 -0.3235
    10 H(1)   Bbb    -0.1201   -64.059   -22.858   -21.368  0.1841  0.4966  0.8482
              Bcc     0.2464   131.449    46.904    43.847  0.8061  0.4175 -0.4194
 
              Baa    -0.0210    -2.813    -1.004    -0.938  0.4249  0.1967  0.8836
    11 C(13)  Bbb    -0.0160    -2.148    -0.766    -0.717  0.8824  0.1278 -0.4528
              Bcc     0.0370     4.961     1.770     1.655 -0.2020  0.9721 -0.1193
 
              Baa    -0.0087    -4.643    -1.657    -1.549  0.3445  0.2145  0.9139
    12 H(1)   Bbb    -0.0016    -0.878    -0.313    -0.293  0.8872  0.2438 -0.3917
              Bcc     0.0103     5.522     1.970     1.842 -0.3069  0.9458 -0.1063
 
              Baa    -0.0039    -2.096    -0.748    -0.699  0.4802 -0.2319  0.8459
    13 H(1)   Bbb    -0.0031    -1.628    -0.581    -0.543  0.8162  0.4714 -0.3341
              Bcc     0.0070     3.724     1.329     1.242 -0.3213  0.8509  0.4157
 
              Baa    -0.0039    -2.063    -0.736    -0.688  0.0355  0.3474  0.9371
    14 H(1)   Bbb    -0.0030    -1.580    -0.564    -0.527  0.7362  0.6250 -0.2596
              Bcc     0.0068     3.644     1.300     1.215 -0.6759  0.6991 -0.2335
 
              Baa    -0.0083    -4.423    -1.578    -1.475  0.4646  0.1727  0.8685
    15 H(1)   Bbb    -0.0017    -0.931    -0.332    -0.310 -0.0375  0.9838 -0.1756
              Bcc     0.0100     5.354     1.910     1.786  0.8847 -0.0490 -0.4635
 

 ---------------------------------------------------------------------------------

 Calling FoFJK, ICntrl=  10100127 FMM=F ISym2X=0 I1Cent= 0 IOpClX= 1 NMat=1 NMatS=1 NMatT=0.
 ***** Axes restored to original set *****
 -------------------------------------------------------------------
 Center     Atomic                   Forces (Hartrees/Bohr)
 Number     Number              X              Y              Z
 -------------------------------------------------------------------
      1        6          -0.004435159    0.003687388    0.002710938
      2        6           0.003610943   -0.001892097   -0.001465190
      3        1           0.000450494   -0.001097642    0.000015249
      4        6          -0.002714782    0.002897727   -0.002949433
      5        1          -0.000918929   -0.000449030   -0.000016404
      6        1           0.000258316    0.000126728    0.000401218
      7        1           0.000194141   -0.000020490   -0.000749570
      8        8          -0.002481013   -0.012426548   -0.005925629
      9        8           0.000749976    0.007547230    0.010653127
     10        1           0.004803662    0.002755732   -0.002614922
     11        6          -0.000121942   -0.000305449    0.000280513
     12        1           0.001194631   -0.000150998   -0.000674921
     13        1           0.000035956   -0.000073802    0.000367246
     14        1          -0.000280458   -0.000180509   -0.000152508
     15        1          -0.000345836   -0.000418239    0.000120287
 -------------------------------------------------------------------
 Cartesian Forces:  Max     0.012426548 RMS     0.003313376
 FormGI is forming the generalized inverse of G from B-inverse, IUseBI=4.

 GradGradGradGradGradGradGradGradGradGradGradGradGradGradGradGradGradGrad
 Berny optimization.
 Internal  Forces:  Max     0.014558784 RMS     0.002627563
 Search for a saddle point.
 Step number   1 out of a maximum of  100
 All quantities printed in internal units (Hartrees-Bohrs-Radians)
 Swapping is turned off.
 Second derivative matrix not updated -- analytic derivatives used.
 ITU=  0
     Eigenvalues ---   -0.06270   0.00155   0.00383   0.00712   0.01078
     Eigenvalues ---    0.01429   0.01752   0.02173   0.03509   0.04129
     Eigenvalues ---    0.05663   0.05697   0.06020   0.08454   0.08572
     Eigenvalues ---    0.09880   0.11229   0.12466   0.13346   0.14577
     Eigenvalues ---    0.16164   0.16705   0.17719   0.18419   0.20405
     Eigenvalues ---    0.21228   0.28528   0.31947   0.32711   0.33506
     Eigenvalues ---    0.33537   0.33548   0.34442   0.34559   0.35351
     Eigenvalues ---    0.36103   0.36491   0.43419   0.66984
 Eigenvectors required to have negative eigenvalues:
                          R3        R11       A1        R10       A2
   1                    0.77643  -0.57305   0.14802   0.14439  -0.08270
                          A14       A3        D16       A13       A5
   1                   -0.07919  -0.06547  -0.04085  -0.03280  -0.03093
 RFO step:  Lambda0=1.013424333D-04 Lambda=-1.20780493D-03.
 Linear search not attempted -- option 19 set.
 Iteration  1 RMS(Cart)=  0.08322353 RMS(Int)=  0.00272601
 Iteration  2 RMS(Cart)=  0.00498276 RMS(Int)=  0.00015325
 Iteration  3 RMS(Cart)=  0.00001939 RMS(Int)=  0.00015299
 Iteration  4 RMS(Cart)=  0.00000000 RMS(Int)=  0.00015299
 Variable       Old X    -DE/DX   Delta X   Delta X   Delta X     New X
                                 (Linear)    (Quad)   (Total)
    R1        2.47567   0.00526   0.00000   0.00524   0.00524   2.48091
    R2        2.04317  -0.00111   0.00000  -0.00317  -0.00317   2.04000
    R3        2.68483  -0.00066   0.00000   0.03096   0.03097   2.71579
    R4        2.83266   0.00063   0.00000   0.00046   0.00046   2.83312
    R5        2.06345  -0.00047   0.00000  -0.00133  -0.00133   2.06212
    R6        2.06593  -0.00079   0.00000  -0.00303  -0.00303   2.06291
    R7        2.05678  -0.00042   0.00000  -0.00046  -0.00046   2.05632
    R8        2.05961  -0.00050   0.00000  -0.00207  -0.00207   2.05754
    R9        2.66776   0.00525   0.00000   0.01280   0.01280   2.68056
   R10        2.62419   0.01456   0.00000   0.04982   0.04982   2.67401
   R11        2.09847   0.00554   0.00000  -0.01256  -0.01256   2.08590
   R12        2.05351  -0.00130   0.00000  -0.00257  -0.00257   2.05094
   R13        2.06120  -0.00027   0.00000  -0.00071  -0.00071   2.06049
   R14        2.06105  -0.00026   0.00000  -0.00072  -0.00072   2.06033
    A1        2.30186  -0.00175   0.00000   0.00194   0.00193   2.30379
    A2        2.01285   0.00261   0.00000   0.01908   0.01906   2.03190
    A3        1.96832  -0.00087   0.00000  -0.02082  -0.02085   1.94748
    A4        2.20443   0.00183   0.00000   0.00467   0.00467   2.20910
    A5        2.04741  -0.00065   0.00000  -0.00317  -0.00317   2.04424
    A6        2.03133  -0.00118   0.00000  -0.00149  -0.00149   2.02984
    A7        1.91797  -0.00028   0.00000  -0.00094  -0.00094   1.91703
    A8        1.91976  -0.00051   0.00000   0.00011   0.00008   1.91984
    A9        1.92501   0.00094   0.00000   0.00722   0.00721   1.93221
   A10        1.92657  -0.00023   0.00000  -0.00174  -0.00174   1.92483
   A11        1.84488  -0.00077   0.00000  -0.00889  -0.00888   1.83599
   A12        1.92851   0.00086   0.00000   0.00399   0.00398   1.93249
   A13        1.88755   0.00130   0.00000  -0.00741  -0.00741   1.88014
   A14        1.81617   0.00478   0.00000   0.00117   0.00117   1.81734
   A15        1.94099   0.00059   0.00000   0.00320   0.00320   1.94419
   A16        1.92475   0.00020   0.00000  -0.00023  -0.00023   1.92452
   A17        1.91963   0.00019   0.00000   0.00246   0.00246   1.92209
   A18        1.89875  -0.00037   0.00000  -0.00214  -0.00214   1.89661
   A19        1.90668  -0.00036   0.00000  -0.00122  -0.00123   1.90545
   A20        1.87156  -0.00029   0.00000  -0.00233  -0.00233   1.86923
   A21        3.07185   0.00181   0.00000   0.04151   0.04176   3.11361
   A22        3.05430   0.00280   0.00000   0.06747   0.06750   3.12181
    D1        3.12844   0.00003   0.00000   0.00519   0.00493   3.13336
    D2       -0.00569   0.00004   0.00000   0.00269   0.00242  -0.00326
    D3       -0.03345  -0.00026   0.00000   0.01870   0.01896  -0.01449
    D4        3.11562  -0.00026   0.00000   0.01619   0.01645   3.13207
    D5       -0.99112  -0.00047   0.00000   0.05915   0.05981  -0.93131
    D6        2.10012   0.00015   0.00000   0.09396   0.09330   2.19342
    D7       -0.01410   0.00001   0.00000   0.02994   0.02994   0.01584
    D8        2.09392   0.00007   0.00000   0.02920   0.02920   2.12312
    D9       -2.12866  -0.00005   0.00000   0.02771   0.02771  -2.10095
   D10        3.12008   0.00001   0.00000   0.03242   0.03242  -3.13068
   D11       -1.05508   0.00007   0.00000   0.03168   0.03168  -1.02340
   D12        1.00553  -0.00005   0.00000   0.03019   0.03019   1.03571
   D13        1.14224   0.00035   0.00000   0.00838   0.00841   1.15065
   D14       -3.06858   0.00006   0.00000   0.00592   0.00591  -3.06267
   D15       -0.98412  -0.00021   0.00000   0.00075   0.00073  -0.98339
   D16       -1.47467  -0.00074   0.00000  -0.02943  -0.02943  -1.50410
         Item               Value     Threshold  Converged?
 Maximum Force            0.014559     0.000450     NO 
 RMS     Force            0.002628     0.000300     NO 
 Maximum Displacement     0.214982     0.001800     NO 
 RMS     Displacement     0.086083     0.001200     NO 
 Predicted change in Energy=-5.706509D-04
 GradGradGradGradGradGradGradGradGradGradGradGradGradGradGradGradGradGrad

                          Input orientation:                          
 ---------------------------------------------------------------------
 Center     Atomic      Atomic             Coordinates (Angstroms)
 Number     Number       Type             X           Y           Z
 ---------------------------------------------------------------------
      1          6           0        1.091062    1.270073   -0.010489
      2          6           0        2.005197    0.378613   -0.315793
      3          1           0        1.045400    2.338205   -0.160071
      4          6           0       -2.234105   -0.030945   -0.778540
      5          1           0       -1.635229    0.642916   -1.394123
      6          1           0       -2.605554   -0.853884   -1.385900
      7          1           0       -3.064548    0.512704   -0.330986
      8          8           0       -1.434562   -0.639288    0.222845
      9          8           0       -1.007310    0.377347    1.109530
     10          1           0       -0.091269    0.776423    0.640482
     11          6           0        1.945265   -1.093459   -0.038164
     12          1           0        1.016387   -1.366325    0.452373
     13          1           0        2.027460   -1.656844   -0.968076
     14          1           0        2.783810   -1.390844    0.592001
     15          1           0        2.903817    0.739603   -0.818730
 ---------------------------------------------------------------------
                    Distance matrix (angstroms):
                    1          2          3          4          5
     1  C    0.000000
     2  C    1.312843   0.000000
     3  H    1.079520   2.187569   0.000000
     4  C    3.652299   4.284105   4.092742   0.000000
     5  H    3.120966   3.805963   3.403331   1.091643   0.000000
     6  H    4.479723   4.891135   5.002155   1.088158   1.783819
     7  H    4.236203   5.071541   4.500371   1.088804   1.786105
     8  O    3.174726   3.627423   3.893880   1.418493   2.073379
     9  O    2.540584   3.332679   3.109738   2.288348   2.594820
    10  H    1.437136   2.338351   2.090948   2.693922   2.557588
    11  C    2.513307   1.499221   3.549779   4.375412   4.203993
    12  H    2.677763   2.147704   3.754926   3.723451   3.804953
    13  H    3.218798   2.137534   4.192580   4.565130   4.345768
    14  H    3.210744   2.135722   4.182522   5.376541   5.254406
    15  H    2.054443   1.091228   2.538321   5.195538   4.576392
                    6          7          8          9         10
     6  H    0.000000
     7  H    1.786360   0.000000
     8  O    2.001333   2.071393   0.000000
     9  O    3.208969   2.515081   1.415027   0.000000
    10  H    3.617423   3.139058   1.995769   1.103811   0.000000
    11  C    4.752235   5.269130   3.420180   3.492588   2.846839
    12  H    4.093934   4.560530   2.566791   2.750926   2.419433
    13  H    4.720608   5.571478   3.799909   4.202881   3.605171
    14  H    5.765905   6.219220   4.300672   4.215084   3.600762
    15  H    5.763164   5.992559   4.669878   4.375653   3.331846
                   11         12         13         14         15
    11  C    0.000000
    12  H    1.085310   0.000000
    13  H    1.090364   1.767582   0.000000
    14  H    1.090278   1.773100   1.754041   0.000000
    15  H    2.210932   3.100488   2.556025   2.558001   0.000000
 Stoichiometry    C4H9O2(2)
 Framework group  C1[X(C4H9O2)]
 Deg. of freedom    39
 Full point group                 C1      NOp   1
 Largest Abelian subgroup         C1      NOp   1
 Largest concise Abelian subgroup C1      NOp   1
                         Standard orientation:                         
 ---------------------------------------------------------------------
 Center     Atomic      Atomic             Coordinates (Angstroms)
 Number     Number       Type             X           Y           Z
 ---------------------------------------------------------------------
      1          6           0        1.100992    1.243327   -0.137400
      2          6           0        2.014802    0.323755   -0.344505
      3          1           0        1.059380    2.291025   -0.394228
      4          6           0       -2.222202   -0.121678   -0.794995
      5          1           0       -1.617057    0.485454   -1.470918
      6          1           0       -2.591583   -1.000897   -1.319037
      7          1           0       -3.054311    0.466026   -0.410686
      8          8           0       -1.431549   -0.627597    0.268508
      9          8           0       -1.007828    0.472378    1.051334
     10          1           0       -0.087342    0.820251    0.551243
     11          6           0        1.948782   -1.112698    0.079651
     12          1           0        1.015658   -1.332811    0.588303
     13          1           0        2.036064   -1.767136   -0.788097
     14          1           0        2.781960   -1.346752    0.742778
     15          1           0        2.918004    0.630355   -0.874601
 ---------------------------------------------------------------------
 Rotational constants (GHZ):           5.3764216           1.7217886           1.5889824
 Standard basis: CC-pVTZ (5D, 7F)
 There are   345 symmetry adapted cartesian basis functions of A   symmetry.
 There are   306 symmetry adapted basis functions of A   symmetry.
   306 basis functions,   465 primitive gaussians,   345 cartesian basis functions
    25 alpha electrons       24 beta electrons
       nuclear repulsion energy       235.8552706218 Hartrees.
 NAtoms=   15 NActive=   15 NUniq=   15 SFac= 1.00D+00 NAtFMM=   60 NAOKFM=F Big=F
 Integral buffers will be    131072 words long.
 Raffenetti 2 integral format.
 Two-electron integral symmetry is turned on.
 Nuclear repulsion after empirical dispersion term =      235.8480807893 Hartrees.
 One-electron integrals computed using PRISM.
 NBasis=   306 RedAO= T EigKep=  4.20D-04  NBF=   306
 NBsUse=   306 1.00D-06 EigRej= -1.00D+00 NBFU=   306
 Initial guess from the checkpoint file:  "/localscratch/341085/Gau-39329.chk"
 B after Tr=     0.000000    0.000000   -0.000000
         Rot=    0.998311    0.057902    0.002376    0.003992 Ang=   6.66 deg.
 Initial guess <Sx>= 0.0000 <Sy>= 0.0000 <Sz>= 0.5000 <S**2>= 0.7791 S= 0.5144
 ExpMin= 1.03D-01 ExpMax= 1.53D+04 ExpMxC= 5.22D+02 IAcc=3 IRadAn=         5 AccDes= 0.00D+00
 Harris functional with IExCor=  419 and IRadAn=       5 diagonalized for initial guess.
 HarFok:  IExCor=  419 AccDes= 0.00D+00 IRadAn=         5 IDoV= 1 UseB2=F ITyADJ=14
 ICtDFT=  3500011 ScaDFX=  1.000000  1.000000  1.000000  1.000000
 FoFCou: FMM=F IPFlag=           0 FMFlag=      100000 FMFlg1=           0
         NFxFlg=           0 DoJE=T BraDBF=F KetDBF=T FulRan=T
         wScrn=  0.000000 ICntrl=       500 IOpCl=  0 I1Cent=   200000004 NGrid=           0
         NMat0=    1 NMatS0=      1 NMatT0=    0 NMatD0=    1 NMtDS0=    0 NMtDT0=    0
 Petite list used in FoFCou.
 Requested convergence on RMS density matrix=1.00D-08 within 128 cycles.
 Requested convergence on MAX density matrix=1.00D-06.
 Requested convergence on             energy=1.00D-06.
 No special actions if energy rises.
 Integral accuracy reduced to 1.0D-05 until final iterations.
 Initial convergence to 1.0D-05 achieved.  Increase integral accuracy.
 SCF Done:  E(UB2PLYPD3) =  -307.564721492     A.U. after   18 cycles
            NFock= 18  Conv=0.60D-08     -V/T= 2.0043
 <Sx>= 0.0000 <Sy>= 0.0000 <Sz>= 0.5000 <S**2>= 0.7795 S= 0.5147
 <L.S>=  0.00000000000    
 Annihilation of the first spin contaminant:
 S**2 before annihilation     0.7795,   after     0.7506
 DoSCS=T DFT=T ScalE2(SS,OS)=  0.270000  0.270000
 ExpMin= 1.03D-01 ExpMax= 1.53D+04 ExpMxC= 5.22D+02 IAcc=3 IRadAn=         5 AccDes= 0.00D+00
 HarFok:  IExCor=  205 AccDes= 0.00D+00 IRadAn=         5 IDoV=-2 UseB2=F ITyADJ=14
 ICtDFT= 12500011 ScaDFX=  1.000000  1.000000  1.000000  1.000000
 Range of M.O.s used for correlation:     7   306
 NBasis=   306 NAE=    25 NBE=    24 NFC=     6 NFV=     0
 NROrb=    300 NOA=    19 NOB=    18 NVA=   281 NVB=   282

 **** Warning!!: The largest alpha MO coefficient is  0.12051353D+02


 **** Warning!!: The largest beta MO coefficient is  0.12324691D+02

 DoSCS=T DFT=T ScalE2(SS,OS)=  0.270000  0.270000
 Disk-based method using ON**2 memory for 19 occupieds at a time.
 Estimated scratch disk usage=  1383117720 words.
 Actual    scratch disk usage=  1267762584 words.
 JobTyp=2 Pass  1:  I=   7 to  25 NPSUse= 40 ParTrn=T ParDer=T DoDerP=T.
 (rs|ai) integrals will be sorted in core.
 Actual    scratch disk usage=  1267762584 words.
 JobTyp=3 Pass  1:  I=   7 to  24 NPSUse= 40 ParTrn=T ParDer=T DoDerP=T.
 (rs|ai) integrals will be sorted in core.
 Spin components of T(2) and E(2):
     alpha-alpha T2 =       0.6514296835D-01 E2=     -0.4679468506D-01
     alpha-beta  T2 =       0.3997365516D+00 E2=     -0.2899568321D+00
     beta-beta   T2 =       0.6901067979D-01 E2=     -0.4525788133D-01
 (S**2,0)=  0.77953D+00           (S**2,1)=  0.75071D+00
 Scaling Projection term by:   0.270000
 E(PUHF)=      -0.30757100262D+03        E(PMP2)=      -0.30794760906D+03
 E2(B2PLYPD3) =    -0.3820093985D+00 E(B2PLYPD3) =    -0.30794673089087D+03
          IDoAtm=111111111111111
          Differentiating once with respect to electric field.
                with respect to dipole field.
          Differentiating once with respect to nuclear coordinates.
 Keep R1 and R2 ints in memory in canonical form, NReq=2252584249.
          There are     1 degrees of freedom in the 1st order CPHF.  IDoFFX=0 NUNeed=     1.
 LinEq1:  Iter=  0 NonCon=     1 RMS=9.75D-04 Max=6.50D-02 NDo=     1
 AX will form     1 AO Fock derivatives at one time.
 LinEq1:  Iter=  1 NonCon=     1 RMS=3.30D-04 Max=1.26D-02 NDo=     1
 LinEq1:  Iter=  2 NonCon=     1 RMS=2.04D-04 Max=9.65D-03 NDo=     1
 LinEq1:  Iter=  3 NonCon=     1 RMS=9.79D-05 Max=4.73D-03 NDo=     1
 LinEq1:  Iter=  4 NonCon=     1 RMS=7.23D-05 Max=3.89D-03 NDo=     1
 LinEq1:  Iter=  5 NonCon=     1 RMS=2.82D-05 Max=1.20D-03 NDo=     1
 LinEq1:  Iter=  6 NonCon=     1 RMS=1.95D-05 Max=7.02D-04 NDo=     1
 LinEq1:  Iter=  7 NonCon=     1 RMS=7.46D-06 Max=1.43D-04 NDo=     1
 LinEq1:  Iter=  8 NonCon=     1 RMS=5.46D-06 Max=1.78D-04 NDo=     1
 LinEq1:  Iter=  9 NonCon=     1 RMS=2.92D-06 Max=7.52D-05 NDo=     1
 LinEq1:  Iter= 10 NonCon=     1 RMS=1.04D-06 Max=1.84D-05 NDo=     1
 LinEq1:  Iter= 11 NonCon=     1 RMS=4.24D-07 Max=8.37D-06 NDo=     1
 LinEq1:  Iter= 12 NonCon=     1 RMS=2.01D-07 Max=3.71D-06 NDo=     1
 LinEq1:  Iter= 13 NonCon=     1 RMS=8.43D-08 Max=2.05D-06 NDo=     1
 LinEq1:  Iter= 14 NonCon=     1 RMS=2.71D-08 Max=6.22D-07 NDo=     1
 LinEq1:  Iter= 15 NonCon=     1 RMS=8.22D-09 Max=1.41D-07 NDo=     1
 LinEq1:  Iter= 16 NonCon=     1 RMS=3.02D-09 Max=7.93D-08 NDo=     1
 LinEq1:  Iter= 17 NonCon=     1 RMS=1.38D-09 Max=4.04D-08 NDo=     1
 LinEq1:  Iter= 18 NonCon=     1 RMS=5.14D-10 Max=2.18D-08 NDo=     1
 LinEq1:  Iter= 19 NonCon=     1 RMS=1.69D-10 Max=6.67D-09 NDo=     1
 LinEq1:  Iter= 20 NonCon=     1 RMS=5.22D-11 Max=1.60D-09 NDo=     1
 LinEq1:  Iter= 21 NonCon=     0 RMS=1.56D-11 Max=4.09D-10 NDo=     1
 Linear equations converged to 1.000D-10 1.000D-09 after    21 iterations.
 End of Minotr F.D. properties file   721 does not exist.
 End of Minotr F.D. properties file   722 does not exist.
 End of Minotr F.D. properties file   788 does not exist.
 Calling FoFJK, ICntrl=  10002127 FMM=F ISym2X=0 I1Cent= 0 IOpClX= 1 NMat=1 NMatS=1 NMatT=0.
 ***** Axes restored to original set *****
 -------------------------------------------------------------------
 Center     Atomic                   Forces (Hartrees/Bohr)
 Number     Number              X              Y              Z
 -------------------------------------------------------------------
      1        6          -0.000023019    0.000045053    0.000120170
      2        6           0.000095371    0.000025047   -0.000078995
      3        1           0.000045395    0.000006002    0.000052668
      4        6          -0.000130176    0.000038172   -0.000092919
      5        1          -0.000003682   -0.000022273    0.000010902
      6        1          -0.000001063   -0.000005107    0.000008973
      7        1           0.000002630    0.000004831    0.000003797
      8        8          -0.000180407   -0.000832361   -0.000513597
      9        8          -0.000131268    0.000738660    0.000748772
     10        1           0.000312358    0.000057453   -0.000197383
     11        6           0.000056371   -0.000015792   -0.000120146
     12        1          -0.000025637   -0.000006133    0.000044766
     13        1           0.000038639   -0.000000293    0.000007924
     14        1          -0.000037754   -0.000006657    0.000043176
     15        1          -0.000017759   -0.000026601   -0.000038109
 -------------------------------------------------------------------
 Cartesian Forces:  Max     0.000832361 RMS     0.000228331

 GradGradGradGradGradGradGradGradGradGradGradGradGradGradGradGradGradGrad
 Berny optimization.
 FormGI is forming the generalized inverse of G from B-inverse, IUseBI=4.
 Internal  Forces:  Max     0.001046998 RMS     0.000177250
 Search for a saddle point.
 Step number   2 out of a maximum of  100
 All quantities printed in internal units (Hartrees-Bohrs-Radians)
 Swapping is turned off.
 Update second derivatives using D2CorX and points    1    2
 ITU=  0  0
     Eigenvalues ---   -0.06242   0.00207   0.00406   0.00713   0.01091
     Eigenvalues ---    0.01428   0.01747   0.02173   0.03483   0.04117
     Eigenvalues ---    0.05663   0.05695   0.06018   0.08454   0.08571
     Eigenvalues ---    0.09874   0.11226   0.12466   0.13345   0.14577
     Eigenvalues ---    0.16162   0.16702   0.17715   0.18419   0.20391
     Eigenvalues ---    0.21222   0.28352   0.31946   0.32699   0.33495
     Eigenvalues ---    0.33537   0.33546   0.34442   0.34547   0.35352
     Eigenvalues ---    0.36103   0.36465   0.43179   0.66972
 Eigenvectors required to have negative eigenvalues:
                          R3        R11       A1        R10       A2
   1                    0.77698  -0.57196   0.14791   0.14615  -0.08308
                          A14       A3        D16       A13       A5
   1                   -0.07884  -0.06487  -0.04038  -0.03273  -0.03089
 RFO step:  Lambda0=1.168044522D-07 Lambda=-2.50339259D-05.
 Linear search not attempted -- option 19 set.
 Iteration  1 RMS(Cart)=  0.02822691 RMS(Int)=  0.00033351
 Iteration  2 RMS(Cart)=  0.00044686 RMS(Int)=  0.00001948
 Iteration  3 RMS(Cart)=  0.00000025 RMS(Int)=  0.00001948
 Variable       Old X    -DE/DX   Delta X   Delta X   Delta X     New X
                                 (Linear)    (Quad)   (Total)
    R1        2.48091   0.00013   0.00000   0.00006   0.00006   2.48097
    R2        2.04000  -0.00000   0.00000   0.00005   0.00005   2.04005
    R3        2.71579   0.00010   0.00000   0.00216   0.00216   2.71795
    R4        2.83312   0.00002   0.00000   0.00013   0.00013   2.83325
    R5        2.06212  -0.00001   0.00000  -0.00003  -0.00003   2.06209
    R6        2.06291  -0.00002   0.00000  -0.00015  -0.00015   2.06275
[...]
 ! D11   D(15,2,11,13)         -57.3132         -DE/DX =    0.0                 !
 ! D12   D(15,2,11,14)          60.6497         -DE/DX =    0.0                 !
 ! D13   D(5,4,8,9)             65.9617         -DE/DX =    0.0                 !
 ! D14   D(6,4,8,9)           -175.4123         -DE/DX =    0.0                 !
 ! D15   D(7,4,8,9)            -56.3077         -DE/DX =    0.0                 !
 ! D16   D(4,8,9,10)           -86.8137         -DE/DX =    0.0                 !
 --------------------------------------------------------------------------------
 GradGradGradGradGradGradGradGradGradGradGradGradGradGradGradGradGradGrad


 ----------------------------------------------------------------------

 Electric dipole moment (input orientation):
 (Debye = 10**-18 statcoulomb cm , SI units = C m)
                  (au)            (Debye)         (10**-30 SI)
   Tot        0.967692D+00      0.245963D+01      0.820444D+01
   x          0.370476D+00      0.941656D+00      0.314103D+01
   y          0.189714D+00      0.482205D+00      0.160846D+01
   z         -0.873605D+00     -0.222048D+01     -0.740673D+01

 Dipole polarizability, Alpha (input orientation).
 (esu units = cm**3 , SI units = C**2 m**2 J**-1)
 Alpha(0;0):
               (au)            (10**-24 esu)      (10**-40 SI)
   iso        0.694351D+02      0.102892D+02      0.114483D+02
   aniso      0.388851D+02      0.576218D+01      0.641129D+01
   xx         0.931241D+02      0.137996D+02      0.153541D+02
   yx         0.261349D+01      0.387279D+00      0.430906D+00
   yy         0.645058D+02      0.955877D+01      0.106356D+02
   zx        -0.492819D+01     -0.730283D+00     -0.812549D+00
   zy         0.205029D+01      0.303821D+00      0.338046D+00
   zz         0.506754D+02      0.750932D+01      0.835525D+01

 ----------------------------------------------------------------------

 Dipole orientation:
     6          1.84417377         -2.30325272          1.25054441
     6          3.24176947         -0.44839085          2.12331725
     1          1.63912312         -4.24671665          1.83623986
     6         -4.41113271          0.24384888         -0.30692140
     1         -3.84094442         -0.63302018          1.47094306
     1         -5.38626057          2.01500192          0.06832236
     1         -5.63200027         -1.03276840         -1.36182557
     8         -2.26313482          0.91986292         -1.76241784
     8         -1.02349547         -1.34187546         -2.48131340
     1          0.25115925         -1.75664147         -0.88118921
     6          3.36720520          2.19428810          1.10919903
     1          2.06795185          2.45806697         -0.45602397
     1          2.90262988          3.55020287          2.58941198
     1          5.28134600          2.62064328          0.47691576
     1          4.44716877         -0.86305894          3.74416817

 Electric dipole moment (dipole orientation):
 (Debye = 10**-18 statcoulomb cm , SI units = C m)
                  (au)            (Debye)         (10**-30 SI)
   Tot        0.967692D+00      0.245963D+01      0.820444D+01
   x          0.000000D+00      0.000000D+00      0.000000D+00
   y          0.000000D+00      0.000000D+00      0.000000D+00
   z          0.967692D+00      0.245963D+01      0.820444D+01

 Dipole polarizability, Alpha (dipole orientation).
 (esu units = cm**3 , SI units = C**2 m**2 J**-1)
 Alpha(0;0):
               (au)            (10**-24 esu)      (10**-40 SI)
   iso        0.694351D+02      0.102892D+02      0.114483D+02
   aniso      0.388851D+02      0.576218D+01      0.641129D+01
   xx         0.831228D+02      0.123175D+02      0.137051D+02
   yx        -0.223473D+00     -0.331153D-01     -0.368457D-01
   yy         0.646806D+02      0.958468D+01      0.106644D+02
   zx         0.189368D+02      0.280614D+01      0.312226D+01
   zy        -0.695616D+00     -0.103080D+00     -0.114692D+00
   zz         0.605018D+02      0.896544D+01      0.997540D+01

 ----------------------------------------------------------------------
 1\1\GINC-N58\Freq\UB2PLYPD3-FC\CC-pVTZ\C4H9O2(2)\ROOT\07-Jun-2019\0\\#
 N Geom=AllCheck Guess=TCheck SCRF=Check GenChk UB2PLYPD3(FC)/CC-pVTZ F
 req\\Title Card Required\\0,2\C,1.1059955325,1.285451091,0.015147413\C
 ,2.0041371311,0.3850991109,-0.3110868294\H,1.0839361073,2.3581567201,-
 0.1045734401\C,-2.2115525344,-0.0661974352,-0.7723366967\H,-1.59118532
 67,0.5609896465,-1.4151825129\H,-2.5748273057,-0.9252355577,-1.3329005
 541\H,-3.0482058717,0.5117575573,-0.3832792047\O,-1.4432005486,-0.6125
 383679,0.2880276772\O,-1.0305961035,0.4596893093,1.1172462304\H,-0.092
 5201412,0.8141371288,0.6540908275\C,1.9151113342,-1.0929256706,-0.0753
 661341\H,0.9689401029,-1.3649541877,0.381796573\H,2.0163890771,-1.6326
 908446,-1.0172895861\H,2.7308097006,-1.419536551,0.5702509597\H,2.9125
 888461,0.7430920507,-0.7981847229\\Version=ES64L-G16RevB.01\State=2-A\
 HF=-307.5646817\MP2=-307.9467534\PUHF=-307.5709737\PMP2-0=-307.9476328
 \S2=0.779575\S2-1=0.750702\S2A=0.750594\RMSD=2.251e-09\RMSF=4.532e-06\
 ZeroPoint=0.117787\Thermal=0.1264514\Dipole=0.3704758,0.1897139,-0.873
 6045\DipoleDeriv=0.9009113,0.3796022,-0.2452258,0.2087908,-0.0685298,-
 0.0449843,-0.5931183,-0.2052368,-0.1322943,-0.2883893,-0.0724063,-0.04
 90161,-0.2189444,0.1708909,-0.0166147,0.0976064,-0.016488,-0.150947,-0
 .1246366,-0.1000486,0.0756398,0.0325233,-0.0087121,0.0074789,0.150028,
 0.0825149,0.1541263,0.6094875,0.0122704,0.0676566,-0.1547156,0.2860746
 ,-0.0909301,0.2900343,-0.01983,0.4118297,-0.0837986,-0.0966493,0.07982
 79,0.0086212,-0.005205,0.09354,-0.0259045,0.0266877,-0.0363936,0.01653
 17,-0.0283041,-0.0521756,-0.0442602,-0.0413926,-0.0649399,-0.0904372,-
 0.0545969,0.0083136,-0.1160977,0.0516994,0.0012536,0.1358337,0.0188182
 ,0.0125767,0.0609105,-0.0509534,-0.0011632,-0.5410139,0.0257801,0.0290
 087,-0.4692763,-0.4127881,0.1810541,-0.6196442,-0.0897235,-0.254743,0.
 4322194,0.2377834,-0.1953142,0.8193576,0.0731833,-0.1306761,0.1717965,
 0.1298672,-0.2453038,-0.8486415,-0.328928,0.1793138,-0.4493775,-0.0185
 825,0.0463946,0.4608876,0.1299332,0.0431638,0.0405494,0.0159176,0.0575
 832,-0.072526,-0.0306606,0.044037,0.0632548,0.042674,0.126953,0.019671
 5,-0.0618162,0.0508585,0.012702,0.0265088,-0.0070459,0.0311577,0.01193
 57,0.0434812,0.0877972,-0.0132225,0.0077659,0.0592828,-0.0266294,-0.05
 23519,0.0235124,-0.0819984,-0.0699756,-0.0268286,0.0417693,-0.0876458,
 0.0655876,-0.0022305,0.0086949,-0.1035662,0.0583839,0.0226436,-0.07776
 18,-0.0634474,0.0804695,0.066401,0.0392548,0.0137668,0.0834822,0.03683
 03,0.0803091\Polar=93.1240827,2.613491,64.5057909,-4.9281927,2.0502853
 ,50.6754024\PG=C01 [X(C4H9O2)]\NImag=1\\0.34470211,-0.26722416,0.71392
 256,-0.10405072,0.05145122,0.10857493,-0.29453722,0.25436761,0.0934025
 9,0.61018028,0.22509744,-0.31821037,-0.07561295,-0.16431354,0.65186631
 ,0.09631520,-0.08925956,-0.07559242,-0.20787359,0.01571881,0.24215197,
 -0.02816362,-0.00347423,0.00265180,0.00325472,0.02538592,-0.00491766,0
 .02990369,0.01769230,-0.34919562,0.03083782,-0.00905521,-0.00811640,0.
 00542785,-0.01252746,0.35976213,-0.00047141,0.04168086,-0.02947147,-0.
 00067197,-0.01154564,0.00131779,-0.00485706,-0.03574241,0.02311254,-0.
 00653892,-0.00028844,0.00265302,0.00148228,0.00072608,-0.00088661,0.00
 160074,-0.00005430,-0.00080164,0.54155992,0.00321383,0.00105963,-0.001
 50464,-0.00121721,-0.00024255,0.00074346,-0.00080983,-0.00018013,-0.00
 020952,0.02679643,0.60503558,-0.00772768,-0.00181659,0.00403707,0.0024
 1386,0.00056670,-0.00146181,0.00182811,0.00036280,-0.00007638,-0.05700
 411,0.05108822,0.50094066,0.00137208,-0.00018391,-0.00036303,-0.000600
 27,-0.00000933,0.00036457,-0.00034502,0.00007747,0.00033376,-0.1471790
 9,-0.09037080,0.09095933,0.15061188,-0.00157021,-0.00029882,0.00066348
 ,0.00044790,0.00011192,-0.00029818,0.00022027,0.00002542,-0.00002404,-
 0.08605191,-0.13230228,0.07895778,0.09174457,0.14266410,0.00232772,0.0
 0013189,-0.00071729,-0.00062258,0.00001009,0.00034341,-0.00064428,-0.0
 0011923,0.00003932,0.08836536,0.07509946,-0.12848228,-0.09152685,-0.09
 693225,0.14749911,0.00050525,0.00016492,-0.00033545,-0.00023942,-0.000
 23099,0.00018334,-0.00013479,0.00003614,0.00010136,-0.07772079,-0.0649
 5063,-0.04118707,-0.00509368,-0.01483036,-0.00950189,0.08198822,-0.000
 20398,-0.00001163,-0.00010470,0.00005804,-0.00005453,-0.00002888,0.000
 10244,0.00003159,0.00004444,-0.07156978,-0.22698014,-0.11109475,-0.003
 92537,-0.01226069,-0.00942540,0.07602975,0.23649632,0.00100134,0.00022
 078,-0.00026692,-0.00040818,-0.00014649,0.00024785,-0.00029461,-0.0000
 2951,0.00002906,-0.04152273,-0.10105556,-0.11427674,0.00607373,0.01439
 759,0.01182035,0.05474604,0.11742831,0.13044058,0.00093579,0.00019960,
 -0.00056798,-0.00025176,-0.00019667,0.00014455,-0.00028567,-0.00000100
 ,0.00017399,-0.20035478,0.09953652,0.08071547,-0.01303905,0.01009447,0
 .00922855,0.01087971,-0.00659768,-0.00361260,0.21925652,-0.00100095,-0
 .00024255,0.00056601,0.00035090,0.00001543,-0.00024143,0.00019520,0.00
 001702,-0.00001665,0.10185835,-0.12206952,-0.05304811,-0.01512339,0.01
 070399,0.00719220,0.01895677,-0.01096701,-0.00905179,-0.11924286,0.130
 91703,0.00028770,-0.00005643,-0.00010564,-0.00007470,0.00007884,0.0000
 7755,-0.00004818,-0.00003887,-0.00004814,0.08594395,-0.05988007,-0.092
 42557,0.01302493,-0.01035162,-0.00501597,0.01253435,-0.00627492,-0.004
 66924,-0.08094709,0.05329190,0.09706362,0.00793808,0.00004502,-0.00271
 714,-0.00173863,-0.00096883,0.00072050,-0.00234619,-0.00005223,0.00002
 702,-0.10413856,0.05881228,-0.05318196,0.01230832,-0.00259082,0.001263
 78,-0.00810294,0.00363524,-0.01058387,-0.01932086,0.01643632,-0.032884
 95,0.18173847,0.02398515,0.00496369,-0.01155332,-0.00619379,-0.0031042
 4,0.00346782,-0.00504345,0.00001488,0.00198390,0.03669405,-0.12495767,
 0.04063284,0.01435234,-0.01049257,0.02190083,-0.01634179,0.00987580,-0
 .02287966,0.01540651,-0.01030817,0.02059314,-0.01156465,0.30564873,0.0
 2453671,0.00760370,-0.01248043,-0.00752960,-0.00361382,0.00437846,-0.0
 0454134,-0.00036485,0.00190152,-0.05431806,0.07610750,-0.13272578,-0.0
 2175943,0.01588939,-0.03002130,-0.01254213,0.00551931,-0.01784492,-0.0
 0900176,0.00133592,0.00147076,0.13994154,-0.00005603,0.27275008,-0.101
 07499,-0.03200773,0.05338142,0.01122571,0.00052623,-0.00563737,0.00711
 234,-0.00126910,-0.00298736,-0.01411425,-0.02849854,-0.02507316,0.0035
 1025,0.00104641,0.00402593,-0.00213296,0.00229429,-0.00490805,0.003606
 65,-0.00326026,0.00219408,-0.05041108,-0.01086710,-0.01768058,0.147688
 61,-0.06617439,-0.01500685,0.03459795,0.01107032,0.00308334,-0.0061593
 1,0.00845439,0.00060204,-0.00395726,-0.01117493,0.00110494,-0.00935088
 ,0.00400374,0.00095097,0.00311940,0.00107952,0.00379909,0.00107626,0.0
 0139106,0.00174143,0.00303209,-0.03765364,-0.14155460,-0.09237978,0.04
 581552,0.14276031,0.02624788,0.00996733,-0.00736244,0.00165600,0.00352
 499,-0.00234959,0.00082424,0.00052445,-0.00232520,-0.01694397,-0.03773
 799,-0.03393095,0.00151536,-0.00241587,0.00375129,-0.00400129,0.003485
 77,-0.00479626,0.00315230,0.00023484,0.00382737,-0.02614336,-0.0593755
 0,-0.10574509,-0.02411406,0.09484492,0.20260462,0.09050942,0.02777495,
 -0.05601485,-0.02571934,-0.00200947,0.01474824,-0.01114278,0.00180819,
 0.00681796,0.00539623,-0.00237318,0.00848673,-0.00149761,0.00147235,-0
 .00297270,0.00012148,0.00018154,-0.00044625,-0.00146759,0.00086847,-0.
 00006850,-0.01332380,-0.04029338,-0.03658156,-0.00526364,0.04245966,0.
 03666368,-0.03759472,0.04321209,-0.00855455,-0.02390259,-0.00303762,0.
 00146001,0.00188807,-0.01272701,-0.00334934,0.00696283,0.00348669,-0.0
 0064283,0.00390913,-0.00069759,0.00110561,-0.00104926,-0.00003353,0.00
 003022,-0.00000533,-0.00061810,0.00023551,-0.00039424,-0.02751524,-0.0
 3251826,-0.01234900,0.02691580,0.00484655,-0.01038179,-0.03149492,0.03
 828074,-0.05057289,-0.01508550,0.00446485,0.01289747,0.00098794,-0.002
 84507,0.00729928,0.00008198,0.00018421,-0.00546703,-0.00273427,-0.0014
 8001,0.00142763,0.00008684,0.00079932,0.00005140,0.00045156,-0.0006689
 2,0.00069282,-0.00023817,-0.00019015,-0.01663400,0.00526386,0.01836217
 ,0.02046021,-0.02507512,-0.05357888,0.02965697,0.03655795,0.03379836,0
 .00238892,0.02396626,-0.00287823,-0.08005406,-0.01394774,0.00611256,-0
 .00079998,0.00247554,0.00487942,-0.00024073,-0.00005710,-0.00023219,0.
 00012712,-0.00000216,0.00008431,0.00001862,0.00000262,0.00001668,0.000
 07394,-0.00004232,0.00004763,-0.00033525,-0.00007980,-0.00004341,0.000
 49652,-0.00047980,-0.00005855,0.00009424,0.00168733,-0.00087930,0.5840
 4527,0.01212944,-0.02858201,-0.00156514,-0.01785624,-0.20652347,0.0260
 1139,-0.00008755,0.00067084,0.00140231,0.00024063,-0.00016413,0.000097
 50,-0.00008841,0.00002035,-0.00003228,-0.00005657,0.00001052,-0.000058
 75,0.00000534,-0.00000442,0.00009375,0.00061827,-0.00129322,-0.0014396
 0,0.00257238,0.00208009,0.00042189,-0.00462199,-0.00121630,0.00169760,
 0.00260527,0.47993794,-0.00174290,-0.00752056,0.00505532,0.00665154,0.
 02400216,-0.07815151,0.00542381,-0.00017972,0.00764540,-0.00000316,-0.
 00039578,0.00095607,0.00026013,0.00015168,-0.00013183,0.00000655,-0.00
 000042,-0.00002740,-0.00006678,0.00014105,-0.00016890,-0.00195220,0.00
 072871,0.00014653,-0.00069701,-0.00056904,-0.00086822,0.00051415,-0.00
 067355,-0.00142595,-0.02115490,0.00756593,0.54568948,0.00110321,0.0006
 8554,-0.00084148,0.00054438,-0.00041322,-0.00055935,-0.00011943,0.0000
 4560,0.00000388,-0.00018435,-0.00006247,-0.00060495,0.00004277,-0.0000
 6205,0.00008128,-0.00000780,0.00000898,0.00001028,0.00010377,-0.000104
 48,0.00010609,-0.00178882,0.00040903,0.00026406,-0.00014477,0.00063294
 ,0.00035656,-0.00004633,-0.00016177,0.00021771,-0.26099811,-0.05983025
 ,0.10329022,0.27942616,-0.00159724,0.00183896,0.00051937,-0.02992337,-
 0.00919518,0.01460148,0.00015684,0.00037212,-0.00012173,0.00008894,-0.
 00005819,0.00033120,0.00003344,0.00000189,-0.00001128,-0.00003357,-0.0
 0000065,-0.00005391,-0.00004204,0.00004786,-0.00007106,0.00030236,0.00
 066907,0.00076367,-0.00027928,-0.00052876,-0.00123316,0.00058639,-0.00
 104333,0.00008357,-0.05573796,-0.06448184,0.02674963,0.06300228,0.0729
 0501,0.00014659,-0.00055464,-0.00045683,0.00346589,0.00154508,-0.00274
 586,-0.00021421,-0.00007039,-0.00005833,-0.00008890,0.00008601,-0.0002
 5516,-0.00006660,0.00006599,-0.00000708,-0.00009124,-0.00000583,-0.000
 02347,0.00008427,-0.00005452,0.00004708,0.00107026,-0.00074435,-0.0003
 5960,0.00048189,0.00068640,-0.00002815,-0.00075379,-0.00035943,0.00070
 652,0.10157935,0.02829160,-0.09835313,-0.11243112,-0.03150269,0.101276
 90,0.00082982,-0.00039466,0.00012602,-0.00097326,0.00180819,-0.0019763
 9,0.00002513,0.00025837,-0.00014596,-0.00004083,-0.00000494,0.00019969
 ,-0.00002004,0.00009730,-0.00004027,-0.00006134,-0.00001846,-0.0000169
 3,0.00000294,0.00002981,-0.00007488,0.00010270,0.00001019,-0.00008314,
 -0.00007402,0.00015826,-0.00029011,-0.00005299,-0.00036690,0.00028769,
 -0.04902987,0.00882258,0.02355840,-0.00066374,0.01512547,0.02462984,0.
 04792618,-0.00327607,-0.00293461,0.00148825,0.00551656,-0.02104340,-0.
 02957872,0.00171685,-0.00030752,0.00144139,-0.00018603,0.00003596,-0.0
 0006850,0.00008045,-0.00006429,-0.00000659,0.00006093,0.00002298,0.000
 01832,0.00001383,-0.00001630,0.00000298,0.00010151,0.00052002,0.000561
 78,-0.00069812,-0.00067824,-0.00048191,0.00080694,0.00017962,-0.000533
 69,0.00957980,-0.10629993,-0.11252327,0.00036678,0.00392186,0.00770283
 ,-0.01279560,0.12038018,-0.00086431,0.00085585,0.00007941,-0.00008282,
 0.00374592,0.00796923,-0.00037704,0.00003102,-0.00036312,-0.00003384,-
 0.00000389,-0.00014999,0.00000489,-0.00002284,0.00001894,0.00003415,0.
 00000539,0.00002352,0.00001859,-0.00001563,0.00002996,0.00012090,-0.00
 000134,0.00007168,-0.00000344,-0.00007183,0.00022396,0.00001247,0.0002
 2201,-0.00015953,0.02313080,-0.11096383,-0.24572825,-0.00046694,-0.005
 62577,-0.01086261,-0.02374691,0.12212656,0.26639787,0.00086533,-0.0008
 2256,-0.00068382,0.00253123,0.00184343,0.00326889,0.00011542,0.0001664
 3,-0.00017461,0.00010033,-0.00003363,0.00024250,0.00001819,-0.00002159
 ,-0.00002480,0.00002906,0.00000031,-0.00000533,-0.00006720,0.00005005,
 -0.00004081,-0.00056584,0.00045975,0.00028376,-0.00022969,-0.00025563,
 -0.00025754,0.00009725,-0.00022321,-0.00021804,-0.19694655,0.05441028,
 -0.11695195,-0.01839313,0.00829689,-0.01807726,0.00197119,-0.00154323,
 0.00231649,0.21019630,-0.00256121,-0.00258547,0.00210353,0.02802277,-0
 .01526409,0.01978905,-0.00011560,-0.00071878,-0.00220026,-0.00010765,0
 .00003161,-0.00004280,-0.00000101,-0.00005168,-0.00000774,0.00005504,0
 .00001615,0.00002298,-0.00000329,0.00000183,-0.00001180,-0.00006410,0.
 00062113,0.00050625,-0.00054397,-0.00058975,-0.00019228,0.00075867,0.0
 0015868,-0.00005771,0.05674828,-0.06527372,0.04780344,-0.00529518,0.00
 173570,-0.00599118,-0.01287481,0.00496107,-0.00940039,-0.06298875,0.07
 589580,0.00073679,0.00028004,-0.00036460,-0.00239681,0.00043618,-0.001
 50411,-0.00009990,-0.00011736,0.00010964,0.00005800,-0.00000920,-0.000
 08149,-0.00000619,-0.00002068,0.00001255,0.00000264,0.00000297,-0.0000
 0807,0.00000847,-0.00001165,0.00004148,0.00016616,-0.00031831,-0.00024
 027,0.00025280,0.00028874,0.00023002,-0.00022703,0.00002190,0.00007973
 ,-0.11720719,0.04715003,-0.13856168,0.01047354,-0.00544662,0.00960839,
 -0.02219937,0.00850838,-0.01785026,0.13025209,-0.05102460,0.14835317,-
 0.02083528,-0.00280821,0.01623785,-0.22510464,-0.07329751,0.09999312,0
 .00132544,0.00039927,-0.00222739,0.00037281,0.00001927,0.00016544,-0.0
 0021587,0.00000582,-0.00004357,-0.00004861,0.00000205,-0.00004952,-0.0
 0007243,0.00002841,0.00000038,-0.00001560,-0.00093306,-0.00094505,-0.0
 0019468,0.00067296,0.00139287,-0.00010983,0.00157397,0.00078009,0.0011
 5991,0.00113683,0.00286410,0.00112620,0.00002084,0.00026504,0.00005813
 ,0.00025540,-0.00006300,0.00027810,-0.00102918,0.00018601,0.24227635,0
 .01827797,0.00383762,-0.00798430,-0.06823713,-0.07478279,0.03791814,-0
 .00144678,0.00037176,0.00030177,-0.00045812,0.00032971,-0.00052453,0.0
 0010778,-0.00011394,0.00013015,0.00009437,-0.00000804,0.00011677,0.000
 05431,-0.00007212,-0.00001368,0.00045851,0.00191542,0.00191555,-0.0017
 4655,-0.00261055,-0.00118568,0.00407578,0.00102766,-0.00148684,-0.0267
 1821,-0.00888072,0.01471975,0.00077827,-0.00618449,0.00090512,0.000145
 20,0.00132261,-0.00088123,0.00066145,0.00106153,0.00026021,0.07395315,
 0.08278635,0.01382998,0.00210163,0.00460646,0.09917292,0.04030218,-0.0
 9183587,-0.00203296,-0.00060356,-0.00199682,0.00004973,0.00040626,-0.0
 0058763,-0.00024224,-0.00014726,0.00009147,-0.00000074,-0.00000286,0.0
 0002058,-0.00002279,-0.00008396,0.00006580,0.00078733,0.00035741,0.000
 33620,0.00030469,-0.00008253,0.00034752,0.00016446,-0.00044669,0.00195
 333,0.00660300,0.00132760,0.00392407,0.00010021,0.00101730,0.00151135,
 -0.00022767,0.00134217,0.00029921,0.00007044,-0.00129649,0.00017551,-0
 .11855636,-0.04419120,0.08108883\\-0.00000228,0.00000021,-0.00000144,-
 0.00000127,-0.00000091,-0.00000075,0.00000163,0.00000065,0.00000316,-0
 .00000205,-0.00000228,0.00000116,0.00000053,-0.00000111,0.00000119,0.0
 0000036,-0.00000013,-0.00000059,-0.00000066,-0.00000046,0.00000028,-0.
 00000620,-0.00001170,-0.00001630,0.00000250,0.00001604,0.00000925,0.00
 000302,-0.00000007,0.00000360,-0.00000050,-0.00000009,0.00000550,0.000
 00431,-0.00000149,-0.00000416,-0.00000041,0.00000014,0.00000039,0.0000
 0144,0.00000114,-0.00000020,-0.00000041,0.00000006,-0.00000110\\\@


 ...THE PHYSICISTS HAVE MADE THEIR UNIVERSE, AND IF YOU DO NOT LIKE
 IT, YOU MUST MAKE YOUR OWN.
                               -- E. R. HARRISON IN "COSMOLOGY" (1980)
 Job cpu time:       1 days 12 hours  3 minutes 19.9 seconds.
 Elapsed time:       0 days  0 hours 55 minutes 40.1 seconds.
 File lengths (MBytes):  RWF=  57000 Int=      0 D2E=      0 Chk=     16 Scr=      1
 Normal termination of Gaussian 16 at Fri Jun  7 09:18:42 2019.
