 Entering Gaussian System, Link 0=g16
 Initial command:
 /ichec/packages/gaussian/16b01/l1.exe "/localscratch/350156/Gau-3044.inp" -scrdir="/localscratch/350156/"
 Entering Link 1 = /ichec/packages/gaussian/16b01/l1.exe PID=      4008.
  
 Copyright (c) 1988-2017, Gaussian, Inc.  All Rights Reserved.
  
 This is part of the Gaussian(R) 16 program.  It is based on
 the Gaussian(R) 09 system (copyright 2009, Gaussian, Inc.),
 the Gaussian(R) 03 system (copyright 2003, Gaussian, Inc.),
 the Gaussian(R) 98 system (copyright 1998, Gaussian, Inc.),
 the Gaussian(R) 94 system (copyright 1995, Gaussian, Inc.),
 the Gaussian 92(TM) system (copyright 1992, Gaussian, Inc.),
 the Gaussian 90(TM) system (copyright 1990, Gaussian, Inc.),
 the Gaussian 88(TM) system (copyright 1988, Gaussian, Inc.),
 the Gaussian 86(TM) system (copyright 1986, Carnegie Mellon
 University), and the Gaussian 82(TM) system (copyright 1983,
 Carnegie Mellon University). Gaussian is a federally registered
 trademark of Gaussian, Inc.
  
 This software contains proprietary and confidential information,
 including trade secrets, belonging to Gaussian, Inc.
  
 This software is provided under written license and may be
 used, copied, transmitted, or stored only in accord with that
 written license.
  
 The following legend is applicable only to US Government
 contracts under FAR:
  
                    RESTRICTED RIGHTS LEGEND
  
 Use, reproduction and disclosure by the US Government is
 subject to restrictions as set forth in subparagraphs (a)
 and (c) of the Commercial Computer Software - Restricted
 Rights clause in FAR 52.227-19.
  
 Gaussian, Inc.
 340 Quinnipiac St., Bldg. 40, Wallingford CT 06492
  
  
 ---------------------------------------------------------------
 Warning -- This program may not be used in any manner that
 competes with the business of Gaussian, Inc. or will provide
 assistance to any competitor of Gaussian, Inc.  The licensee
 of this program is prohibited from giving any competitor of
 Gaussian, Inc. access to this program.  By using this program,
 the user acknowledges that Gaussian, Inc. is engaged in the
 business of creating and licensing software in the field of
 computational chemistry and represents and warrants to the
 licensee that it is not a competitor of Gaussian, Inc. and that
 it will not use this program in any manner prohibited above.
 ---------------------------------------------------------------
  

 Cite this work as:
 Gaussian 16, Revision B.01,
 M. J. Frisch, G. W. Trucks, H. B. Schlegel, G. E. Scuseria, 
 M. A. Robb, J. R. Cheeseman, G. Scalmani, V. Barone, 
 G. A. Petersson, H. Nakatsuji, X. Li, M. Caricato, A. V. Marenich, 
 J. Bloino, B. G. Janesko, R. Gomperts, B. Mennucci, H. P. Hratchian, 
 J. V. Ortiz, A. F. Izmaylov, J. L. Sonnenberg, D. Williams-Young, 
 F. Ding, F. Lipparini, F. Egidi, J. Goings, B. Peng, A. Petrone, 
 T. Henderson, D. Ranasinghe, V. G. Zakrzewski, J. Gao, N. Rega, 
 G. Zheng, W. Liang, M. Hada, M. Ehara, K. Toyota, R. Fukuda, 
 J. Hasegawa, M. Ishida, T. Nakajima, Y. Honda, O. Kitao, H. Nakai, 
 T. Vreven, K. Throssell, J. A. Montgomery, Jr., J. E. Peralta, 
 F. Ogliaro, M. J. Bearpark, J. J. Heyd, E. N. Brothers, K. N. Kudin, 
 V. N. Staroverov, T. A. Keith, R. Kobayashi, J. Normand, 
 K. Raghavachari, A. P. Rendell, J. C. Burant, S. S. Iyengar, 
 J. Tomasi, M. Cossi, J. M. Millam, M. Klene, C. Adamo, R. Cammi, 
 J. W. Ochterski, R. L. Martin, K. Morokuma, O. Farkas, 
 J. B. Foresman, and D. J. Fox, Gaussian, Inc., Wallingford CT, 2016.
 
 ******************************************
 Gaussian 16:  ES64L-G16RevB.01 20-Dec-2017
                18-Jun-2019 
 ******************************************
 %mem=80GB
 %nproc=40
 Will use up to   40 processors via shared memory.
 ----------------------------------------------------------------------
 # opt=(calcfc,ts,noeigentest,maxcyc=500,modredundant) uB2PLYPD3/cc-pvt
 z scf=maxcyc=500 nosymm
 ----------------------------------------------------------------------
 1/5=1,6=500,10=4,11=1,18=120,38=1/1,3;
 2/9=110,12=2,15=1,17=6,18=5,40=1/2;
 3/5=16,6=1,11=2,25=1,30=1,71=2,74=-60,116=2,140=1/1,2,3;
 4//1;
 5/5=2,7=500,38=5/2;
 8/6=3,8=1,10=1,19=11,30=-1/1;
 9/15=3,16=-3/6;
 11/6=1,8=1,15=11,17=12,24=-1,27=1,28=-2,29=300,31=1,32=6,42=3/1,2,10;
 10/6=2,21=1,31=1/2;
 8/6=4,8=1,10=1,19=11,30=-1/11,4;
 10/5=1,20=4,31=1/2;
 11/12=2,14=11,16=1,17=2,28=-2,31=1,42=3,76=2/2,10,12;
 6/7=2,8=2,9=2,10=2/1;
 7/10=1,12=2,25=1,30=1,44=2/1,2,3,16;
 1/5=1,6=500,10=4,11=1,18=20/3(2);
 2/9=110,15=1/2;
 99//99;
 2/9=110,15=1/2;
 3/5=16,6=1,11=2,25=1,30=1,71=1,74=-60,116=2/1,2,3;
 4/5=5,16=3,69=1/1;
 5/5=2,7=500,38=5/2;
 8/6=4,10=1/1;
 9/15=2,16=-3/6;
 10/5=1,31=1/2;
 7/12=2,30=1/1,2,3,16;
 1/5=1,6=500,11=1,18=20/3(-8);
 2/9=110,15=1/2;
 6/7=2,8=2,9=2,10=2/1;
 99/9=10/99;
 -------------------
 Title Card Required
 -------------------
 Symbolic Z-matrix:
 Charge =  0 Multiplicity = 2
 C                     1.94313  -1.07415   0.45336 
 H                     1.36685  -1.13984   1.37605 
 H                     1.89489  -2.03863  -0.0488 
 C                     1.44021   0.03849  -0.42527 
 H                     1.89615   0.05905  -1.41353 
 C                    -2.09151  -0.17718   0.88107 
 H                    -1.22476  -0.37243   1.51446 
 H                    -2.73675   0.56      1.35474 
 H                    -2.63855  -1.10291   0.71066 
 O                    -1.69851   0.40609  -0.35252 
 O                    -0.93432  -0.54623  -1.05424 
 H                     0.19101  -0.29237  -0.76923 
 H                     2.98704  -0.89946   0.73342 
 C                     1.29574   1.39588   0.20382 
 H                     0.80136   2.0981   -0.46402 
 H                     0.72036   1.34491   1.12797 
 H                     2.27958   1.80644   0.45449 
 
 Add virtual bond connecting atoms H12        and O11        Dist= 2.25D+00.
 Add virtual bond connecting atoms H12        and C4         Dist= 2.53D+00.
 The following ModRedundant input section has been read:
 D    *          4      11    *    R                                           
 D       1       4      11      10 S  36 10.000                                
 

 GradGradGradGradGradGradGradGradGradGradGradGradGradGradGradGradGradGrad
 Berny optimization.
 Initialization pass.
                           ----------------------------
                           !    Initial Parameters    !
                           ! (Angstroms and Degrees)  !
 --------------------------                            --------------------------
 ! Name  Definition              Value          Derivative Info.                !
 --------------------------------------------------------------------------------
 ! R1    R(1,2)                  1.0898         calculate D2E/DX2 analytically  !
 ! R2    R(1,3)                  1.0885         calculate D2E/DX2 analytically  !
 ! R3    R(1,4)                  1.5043         calculate D2E/DX2 analytically  !
 ! R4    R(1,13)                 1.0948         calculate D2E/DX2 analytically  !
 ! R5    R(4,5)                  1.0886         calculate D2E/DX2 analytically  !
 ! R6    R(4,12)                 1.3373         calculate D2E/DX2 analytically  !
 ! R7    R(4,14)                 1.503          calculate D2E/DX2 analytically  !
 ! R8    R(6,7)                  1.0911         calculate D2E/DX2 analytically  !
 ! R9    R(6,8)                  1.0882         calculate D2E/DX2 analytically  !
 ! R10   R(6,9)                  1.0887         calculate D2E/DX2 analytically  !
 ! R11   R(6,10)                 1.42           calculate D2E/DX2 analytically  !
 ! R12   R(10,11)                1.4083         calculate D2E/DX2 analytically  !
 ! R13   R(11,12)                1.1883         calculate D2E/DX2 analytically  !
 ! R14   R(14,15)                1.0879         calculate D2E/DX2 analytically  !
 ! R15   R(14,16)                1.0898         calculate D2E/DX2 analytically  !
 ! R16   R(14,17)                1.0951         calculate D2E/DX2 analytically  !
 ! A1    A(2,1,3)              108.285          calculate D2E/DX2 analytically  !
 ! A2    A(2,1,4)              111.2417         calculate D2E/DX2 analytically  !
 ! A3    A(2,1,13)             107.291          calculate D2E/DX2 analytically  !
 ! A4    A(3,1,4)              111.7841         calculate D2E/DX2 analytically  !
 ! A5    A(3,1,13)             107.5572         calculate D2E/DX2 analytically  !
 ! A6    A(4,1,13)             110.4973         calculate D2E/DX2 analytically  !
 ! A7    A(1,4,5)              113.8415         calculate D2E/DX2 analytically  !
 ! A8    A(1,4,12)             106.233          calculate D2E/DX2 analytically  !
 ! A9    A(1,4,14)             117.1059         calculate D2E/DX2 analytically  !
 ! A10   A(5,4,12)              99.3478         calculate D2E/DX2 analytically  !
 ! A11   A(5,4,14)             113.7768         calculate D2E/DX2 analytically  !
 ! A12   A(12,4,14)            103.9639         calculate D2E/DX2 analytically  !
 ! A13   A(7,6,8)              109.8503         calculate D2E/DX2 analytically  !
 ! A14   A(7,6,9)              109.7455         calculate D2E/DX2 analytically  !
 ! A15   A(7,6,10)             110.9738         calculate D2E/DX2 analytically  !
 ! A16   A(8,6,9)              110.2573         calculate D2E/DX2 analytically  !
 ! A17   A(8,6,10)             105.3069         calculate D2E/DX2 analytically  !
 ! A18   A(9,6,10)             110.6311         calculate D2E/DX2 analytically  !
 ! A19   A(6,10,11)            107.7756         calculate D2E/DX2 analytically  !
 ! A20   A(10,11,12)           104.4724         calculate D2E/DX2 analytically  !
 ! A21   A(4,14,15)            111.6956         calculate D2E/DX2 analytically  !
 ! A22   A(4,14,16)            111.3105         calculate D2E/DX2 analytically  !
 ! A23   A(4,14,17)            110.3664         calculate D2E/DX2 analytically  !
 ! A24   A(15,14,16)           108.1085         calculate D2E/DX2 analytically  !
 ! A25   A(15,14,17)           107.8655         calculate D2E/DX2 analytically  !
 ! A26   A(16,14,17)           107.3213         calculate D2E/DX2 analytically  !
 ! A27   L(4,12,11,7,-1)       178.7707         calculate D2E/DX2 analytically  !
 ! A28   L(4,12,11,7,-2)       177.9702         calculate D2E/DX2 analytically  !
 ! D1    D(2,1,4,5)           -172.2715         calculate D2E/DX2 analytically  !
 ! D2    D(2,1,4,12)           -63.994          calculate D2E/DX2 analytically  !
 ! D3    D(2,1,4,14)            51.5605         calculate D2E/DX2 analytically  !
 ! D4    D(3,1,4,5)            -51.0835         calculate D2E/DX2 analytically  !
 ! D5    D(3,1,4,12)            57.194          calculate D2E/DX2 analytically  !
 ! D6    D(3,1,4,14)           172.7485         calculate D2E/DX2 analytically  !
 ! D7    D(13,1,4,5)            68.6664         calculate D2E/DX2 analytically  !
 ! D8    D(13,1,4,12)          176.9439         calculate D2E/DX2 analytically  !
 ! D9    D(13,1,4,14)          -67.5016         calculate D2E/DX2 analytically  !
 ! D10   D(1,4,11,10)          110.3642         Scan                            !
 ! D11   D(1,4,14,15)         -172.2086         calculate D2E/DX2 analytically  !
 ! D12   D(1,4,14,16)          -51.26           calculate D2E/DX2 analytically  !
 ! D13   D(1,4,14,17)           67.7988         calculate D2E/DX2 analytically  !
 ! D14   D(5,4,14,15)           51.5959         calculate D2E/DX2 analytically  !
 ! D15   D(5,4,14,16)          172.5446         calculate D2E/DX2 analytically  !
 ! D16   D(5,4,14,17)          -68.3966         calculate D2E/DX2 analytically  !
 ! D17   D(12,4,14,15)         -55.4086         calculate D2E/DX2 analytically  !
 ! D18   D(12,4,14,16)          65.54           calculate D2E/DX2 analytically  !
 ! D19   D(12,4,14,17)        -175.4012         calculate D2E/DX2 analytically  !
 ! D20   D(7,6,10,11)           65.2623         calculate D2E/DX2 analytically  !
 ! D21   D(8,6,10,11)         -175.9247         calculate D2E/DX2 analytically  !
 ! D22   D(9,6,10,11)          -56.8063         calculate D2E/DX2 analytically  !
 ! D23   D(6,10,11,12)         -94.0544         calculate D2E/DX2 analytically  !
 --------------------------------------------------------------------------------
 Trust Radius=3.00D-01 FncErr=1.00D-07 GrdErr=1.00D-07 EigMax=2.50D+02 EigMin=1.00D-04
 Number of optimizations in scan=  37
 Number of steps in this run=    102 maximum allowed number of steps=    102.
 Search for a saddle point of order  1.
 GradGradGradGradGradGradGradGradGradGradGradGradGradGradGradGradGradGrad

                          Input orientation:                          
 ---------------------------------------------------------------------
 Center     Atomic      Atomic             Coordinates (Angstroms)
 Number     Number       Type             X           Y           Z
 ---------------------------------------------------------------------
      1          6           0        1.943134   -1.074147    0.453364
      2          1           0        1.366854   -1.139844    1.376049
      3          1           0        1.894893   -2.038631   -0.048802
      4          6           0        1.440208    0.038488   -0.425272
      5          1           0        1.896148    0.059052   -1.413528
      6          6           0       -2.091511   -0.177178    0.881067
      7          1           0       -1.224764   -0.372431    1.514455
      8          1           0       -2.736745    0.560004    1.354735
      9          1           0       -2.638547   -1.102912    0.710655
     10          8           0       -1.698510    0.406086   -0.352518
     11          8           0       -0.934319   -0.546228   -1.054238
     12          1           0        0.191008   -0.292374   -0.769233
     13          1           0        2.987040   -0.899455    0.733422
     14          6           0        1.295744    1.395883    0.203816
     15          1           0        0.801357    2.098100   -0.464019
     16          1           0        0.720359    1.344911    1.127974
     17          1           0        2.279580    1.806443    0.454493
 ---------------------------------------------------------------------
                    Distance matrix (angstroms):
                    1          2          3          4          5
     1  C    0.000000
     2  H    1.089845   0.000000
     3  H    1.088452   1.765458   0.000000
     4  C    1.504291   2.153742   2.159373   0.000000
     5  H    2.184407   3.082084   2.502549   1.088556   0.000000
     6  C    4.155219   3.623813   4.496786   3.771747   4.606777
     7  H    3.413780   2.706393   3.866815   3.321667   4.301088
     8  H    5.038272   4.441786   5.493168   4.570267   5.420141
     9  H    4.588990   4.060462   4.690887   4.385130   5.140600
    10  O    4.012743   3.843735   4.356768   3.161008   3.764006
    11  O    3.291094   3.399128   3.353000   2.525048   2.916676
    12  H    2.275051   2.589026   2.543945   1.337266   1.856372
    13  H    1.094847   1.759477   1.761358   2.148255   2.591944
    14  C    2.565626   2.794476   3.495523   1.503044   2.182522
    15  H    3.494052   3.766951   4.298927   2.156765   2.501570
    16  H    2.793227   2.579439   3.769972   2.153485   3.081419
    17  H    2.900172   3.219152   3.896907   2.145739   2.586484
                    6          7          8          9         10
     6  C    0.000000
     7  H    1.091125   0.000000
     8  H    1.088175   1.783545   0.000000
     9  H    1.088702   1.782829   1.785993   0.000000
    10  O    1.419992   2.077525   2.004080   2.071493   0.000000
    11  O    2.284884   2.590897   3.205564   2.515778   1.408297
    12  H    2.818981   2.688131   3.716117   3.294453   2.057128
    13  H    5.131780   4.315908   5.939509   5.629311   4.983782
    14  C    3.795614   3.346292   4.276012   4.688231   3.202306
    15  H    3.918524   3.758065   4.265181   4.843478   3.020708
    16  H    3.206919   2.623382   3.552333   4.177109   2.987336
    17  H    4.819041   4.260450   5.246672   5.719960   4.293887
                   11         12         13         14         15
    11  O    0.000000
    12  H    1.188289   0.000000
    13  H    4.324067   3.231766   0.000000
    14  C    3.213670   2.239973   2.899921   0.000000
    15  H    3.217670   2.485970   3.898257   1.087902   0.000000
    16  H    3.328125   2.561310   3.214140   1.089832   1.763036
    17  H    4.259164   3.203853   2.810727   1.095140   1.764616
                   16         17
    16  H    0.000000
    17  H    1.760045   0.000000
 Symmetry turned off by external request.
 Stoichiometry    C4H11O2(2)
 Framework group  C1[X(C4H11O2)]
 Deg. of freedom    45
 Full point group                 C1      NOp   1
 Rotational constants (GHZ):           4.6798009           1.7511227           1.6509921
 Standard basis: CC-pVTZ (5D, 7F)
   334 basis functions,   499 primitive gaussians,   375 cartesian basis functions
    26 alpha electrons       25 beta electrons
       nuclear repulsion energy       256.8905931857 Hartrees.
 NAtoms=   17 NActive=   17 NUniq=   17 SFac= 1.00D+00 NAtFMM=   60 NAOKFM=F Big=F
 Integral buffers will be    131072 words long.
 Raffenetti 2 integral format.
 Two-electron integral symmetry is turned off.
 Nuclear repulsion after empirical dispersion term =      256.8822987942 Hartrees.
 One-electron integrals computed using PRISM.
 NBasis=   334 RedAO= T EigKep=  7.99D-04  NBF=   334
 NBsUse=   334 1.00D-06 EigRej= -1.00D+00 NBFU=   334
 ExpMin= 1.03D-01 ExpMax= 1.53D+04 ExpMxC= 5.22D+02 IAcc=3 IRadAn=         5 AccDes= 0.00D+00
 Harris functional with IExCor=  419 and IRadAn=       5 diagonalized for initial guess.
 HarFok:  IExCor=  419 AccDes= 0.00D+00 IRadAn=         5 IDoV= 1 UseB2=F ITyADJ=14
 ICtDFT=  3500011 ScaDFX=  1.000000  1.000000  1.000000  1.000000
 FoFCou: FMM=F IPFlag=           0 FMFlag=      100000 FMFlg1=           0
         NFxFlg=           0 DoJE=T BraDBF=F KetDBF=T FulRan=T
         wScrn=  0.000000 ICntrl=       500 IOpCl=  0 I1Cent=   200000004 NGrid=           0
         NMat0=    1 NMatS0=      1 NMatT0=    0 NMatD0=    1 NMtDS0=    0 NMtDT0=    0
 Symmetry not used in FoFCou.
 Initial guess <Sx>= 0.0000 <Sy>= 0.0000 <Sz>= 0.5000 <S**2>= 0.7500 S= 0.5000
 Requested convergence on RMS density matrix=1.00D-08 within 500 cycles.
 Requested convergence on MAX density matrix=1.00D-06.
 Requested convergence on             energy=1.00D-06.
 No special actions if energy rises.
 Integral accuracy reduced to 1.0D-05 until final iterations.
 Initial convergence to 1.0D-05 achieved.  Increase integral accuracy.
 SCF Done:  E(UB2PLYPD3) =  -308.795169251     A.U. after   19 cycles
            NFock= 19  Conv=0.26D-08     -V/T= 2.0044
 <Sx>= 0.0000 <Sy>= 0.0000 <Sz>= 0.5000 <S**2>= 0.7684 S= 0.5092
 <L.S>=  0.00000000000    
 Annihilation of the first spin contaminant:
 S**2 before annihilation     0.7684,   after     0.7502
 DoSCS=T DFT=T ScalE2(SS,OS)=  0.270000  0.270000
 ExpMin= 1.03D-01 ExpMax= 1.53D+04 ExpMxC= 5.22D+02 IAcc=3 IRadAn=         5 AccDes= 0.00D+00
 HarFok:  IExCor=  205 AccDes= 0.00D+00 IRadAn=         5 IDoV=-2 UseB2=F ITyADJ=14
 ICtDFT= 12500011 ScaDFX=  1.000000  1.000000  1.000000  1.000000
 Range of M.O.s used for correlation:     7   334
 NBasis=   334 NAE=    26 NBE=    25 NFC=     6 NFV=     0
 NROrb=    328 NOA=    20 NOB=    19 NVA=   308 NVB=   309

 **** Warning!!: The largest alpha MO coefficient is  0.12118823D+02


 **** Warning!!: The largest beta MO coefficient is  0.12123272D+02

 DoSCS=T DFT=T ScalE2(SS,OS)=  0.270000  0.270000
 Disk-based method using ON**2 memory for 20 occupieds at a time.
 Permanent disk used for amplitudes=    91502950 words.
 Estimated scratch disk usage=  1853255050 words.
 Actual    scratch disk usage=  1791897994 words.
 JobTyp=2 Pass  1:  I=   7 to  26 NPSUse= 40 ParTrn=T ParDer=T DoDerP=T.
 (rs|ai) integrals will be sorted in core.
 Actual    scratch disk usage=  1791897994 words.
 JobTyp=3 Pass  1:  I=   7 to  25 NPSUse= 40 ParTrn=T ParDer=T DoDerP=T.
 (rs|ai) integrals will be sorted in core.
 Spin components of T(2) and E(2):
     alpha-alpha T2 =       0.6422567847D-01 E2=     -0.4723771561D-01
     alpha-beta  T2 =       0.3978503245D+00 E2=     -0.2996714476D+00
     beta-beta   T2 =       0.6986567191D-01 E2=     -0.4614683052D-01
 (S**2,0)=  0.76845D+00           (S**2,1)=  0.74271D+00
 Scaling Projection term by:   0.270000
 E(PUHF)=      -0.30880138791D+03        E(PMP2)=      -0.30918873864D+03
 E2(B2PLYPD3) =    -0.3930559937D+00 E(B2PLYPD3) =    -0.30918822524449D+03
 G2DrvN: will do    18 centers at a time, making    1 passes.
 Calling FoFCou, ICntrl=  3107 FMM=F I1Cent=   0 AccDes= 0.00D+00.
 End of G2Drv F.D. properties file   721 does not exist.
 End of G2Drv F.D. properties file   722 does not exist.
 End of G2Drv F.D. properties file   788 does not exist.
          IDoAtm=11111111111111111
          Differentiating once with respect to electric field.
                with respect to dipole field.
          Differentiating once with respect to nuclear coordinates.
 Keep R1 and R2 ints in memory in canonical form, NReq=3176103506.
          There are    54 degrees of freedom in the 1st order CPHF.  IDoFFX=6 NUNeed=    54.
     51 vectors produced by pass  0 Test12= 2.91D-14 1.85D-09 XBig12= 8.10D+01 5.50D+00.
 AX will form    51 AO Fock derivatives at one time.
     51 vectors produced by pass  1 Test12= 2.91D-14 1.85D-09 XBig12= 6.24D+00 3.22D-01.
     51 vectors produced by pass  2 Test12= 2.91D-14 1.85D-09 XBig12= 3.96D-01 1.38D-01.
     51 vectors produced by pass  3 Test12= 2.91D-14 1.85D-09 XBig12= 5.70D-03 7.12D-03.
     51 vectors produced by pass  4 Test12= 2.91D-14 1.85D-09 XBig12= 6.02D-05 8.86D-04.
     51 vectors produced by pass  5 Test12= 2.91D-14 1.85D-09 XBig12= 6.52D-07 7.68D-05.
     51 vectors produced by pass  6 Test12= 2.91D-14 1.85D-09 XBig12= 5.40D-09 8.84D-06.
     21 vectors produced by pass  7 Test12= 2.91D-14 1.85D-09 XBig12= 3.33D-11 4.07D-07.
      3 vectors produced by pass  8 Test12= 2.91D-14 1.85D-09 XBig12= 2.05D-13 3.85D-08.
      2 vectors produced by pass  9 Test12= 2.91D-14 1.85D-09 XBig12= 1.50D-15 3.07D-09.
 InvSVY:  IOpt=1 It=  1 EMax= 1.83D-15
 Solved reduced A of dimension   383 with    54 vectors.
 End of Minotr F.D. properties file   721 does not exist.
 End of Minotr F.D. properties file   722 does not exist.
 End of Minotr F.D. properties file   788 does not exist.
 MDV= 10737418240.
 DoSCS=T DFT=T ScalE2(SS,OS)=  0.270000  0.270000
 Form MO integral derivatives with frozen-active canonical formalism.
 Discarding MO integrals.
 Reordered first order wavefunction length =    368623478
 In DefCFB: NBatch=  1 ICI= 26 ICA=309 LFMax= 78
            Large arrays: LIAPS=  7882233000 LIARS=  1476247500 words.
 In DefCFB: NBatch=  1 ICI= 26 ICA=309 LFMax= 78
            Large arrays: LIAPS=  7882233000 LIARS=  1476247500 words.
 Semi-Direct transformation.
 ModeAB=           4 MOrb=            26 LenV=   10734112195
 LASXX=    460751213 LTotXX=   460751213 LenRXX=   928395468
 LTotAB=   467644255 MaxLAS=   573665040 LenRXY=           0
 NonZer=  1389146681 LenScr=  2091891712 LnRSAI=   573665040
 LnScr1=   863873024 LExtra=           0 Total=   4457825244
 MaxDsk=          -1 SrtSym=           T ITran=            4
 JobTyp=1 Pass  1:  I=   1 to  26.
 (rs|ai) integrals will be sorted in core.
 ModeAB=           4 MOrb=            25 LenV=   10734112195
 LASXX=    443915925 LTotXX=   443915925 LenRXX=   826983225
 LTotAB=   383067300 MaxLAS=   551601000 LenRXY=           0
 NonZer=  1270899150 LenScr=  1913825280 LnRSAI=   551601000
 LnScr1=   830646272 LExtra=           0 Total=   4123055777
 MaxDsk=          -1 SrtSym=           T ITran=            4
 JobTyp=2 Pass  1:  I=   1 to  25.
 (rs|ai) integrals will be sorted in core.
 DoSCS=T DFT=T ScalE2(SS,OS)=  0.270000  0.270000
 Spin components of T(2) and E(2):
     alpha-alpha T2 =       0.6422567847D-01 E2=     -0.4723771561D-01
     alpha-beta  T2 =       0.3978503245D+00 E2=     -0.2996714476D+00
     beta-beta   T2 =       0.6986567191D-01 E2=     -0.4614683052D-01
 E2(B2PLYPD3) =    -0.3930559937D+00 E(B2PLYPD3) =    -0.30918822524449D+03
 (S**2,0)=  0.76845D+00           (S**2,1)=  0.74271D+00
 Scaling Projection term by:   0.270000
 E(PUHF)=      -0.30880138791D+03        E(PMP2)=      -0.30918873864D+03
          IDoAtm=11111111111111111
          Differentiating once with respect to electric field.
                with respect to dipole field.
          Differentiating once with respect to nuclear coordinates.
 Keep R1 and R2 ints in memory in canonical form, NReq=3176238830.
          There are     1 degrees of freedom in the 1st order CPHF.  IDoFFX=0 NUNeed=     1.
 LinEq1:  Iter=  0 NonCon=     1 RMS=8.71D-04 Max=6.03D-02 NDo=     1
 AX will form     1 AO Fock derivatives at one time.
 LinEq1:  Iter=  1 NonCon=     1 RMS=2.86D-04 Max=9.83D-03 NDo=     1
 LinEq1:  Iter=  2 NonCon=     1 RMS=1.58D-04 Max=7.79D-03 NDo=     1
 LinEq1:  Iter=  3 NonCon=     1 RMS=6.58D-05 Max=1.04D-03 NDo=     1
 LinEq1:  Iter=  4 NonCon=     1 RMS=3.66D-05 Max=7.33D-04 NDo=     1
 LinEq1:  Iter=  5 NonCon=     1 RMS=2.65D-05 Max=7.68D-04 NDo=     1
 LinEq1:  Iter=  6 NonCon=     1 RMS=1.71D-05 Max=5.27D-04 NDo=     1
 LinEq1:  Iter=  7 NonCon=     1 RMS=5.55D-06 Max=1.00D-04 NDo=     1
 LinEq1:  Iter=  8 NonCon=     1 RMS=2.19D-06 Max=3.44D-05 NDo=     1
 LinEq1:  Iter=  9 NonCon=     1 RMS=9.78D-07 Max=1.81D-05 NDo=     1
 LinEq1:  Iter= 10 NonCon=     1 RMS=3.78D-07 Max=7.71D-06 NDo=     1
 LinEq1:  Iter= 11 NonCon=     1 RMS=1.36D-07 Max=2.58D-06 NDo=     1
 LinEq1:  Iter= 12 NonCon=     1 RMS=4.45D-08 Max=1.20D-06 NDo=     1
 LinEq1:  Iter= 13 NonCon=     1 RMS=2.02D-08 Max=5.35D-07 NDo=     1
 LinEq1:  Iter= 14 NonCon=     1 RMS=7.59D-09 Max=2.96D-07 NDo=     1
 LinEq1:  Iter= 15 NonCon=     1 RMS=2.16D-09 Max=1.02D-07 NDo=     1
 LinEq1:  Iter= 16 NonCon=     1 RMS=7.25D-10 Max=3.90D-08 NDo=     1
 LinEq1:  Iter= 17 NonCon=     1 RMS=2.40D-10 Max=1.10D-08 NDo=     1
 LinEq1:  Iter= 18 NonCon=     1 RMS=8.84D-11 Max=2.60D-09 NDo=     1
 LinEq1:  Iter= 19 NonCon=     0 RMS=3.81D-11 Max=8.23D-10 NDo=     1
 Linear equations converged to 1.000D-10 1.000D-09 after    19 iterations.
 End of Minotr F.D. properties file   721 does not exist.
 End of Minotr F.D. properties file   722 does not exist.
 End of Minotr F.D. properties file   788 does not exist.
 Symmetrizing basis deriv contribution to polar:
 IMax=3 JMax=2 DiffMx= 0.00D+00
 G2DrvN: will do    18 centers at a time, making    1 passes.
 Calling FoFCou, ICntrl=  3107 FMM=F I1Cent=   0 AccDes= 0.00D+00.
 End of G2Drv F.D. properties file   721 does not exist.
 End of G2Drv F.D. properties file   722 does not exist.
 End of G2Drv F.D. properties file   788 does not exist.
 DoSCS=T DFT=T ScalE2(SS,OS)=  0.270000  0.270000
 R2 and R3 integrals will be kept in memory, NReq=  4996899000.
 DD1Dir will call FoFMem   1 times, MxPair=      1926
 NAB=   650 NAA=   325 NBB=   300.
 Discarding MO integrals.

 **********************************************************************

            Population analysis using the SCF Density.

 **********************************************************************

 Alpha  occ. eigenvalues --  -19.78328 -19.78022 -10.65904 -10.64039 -10.61466
 Alpha  occ. eigenvalues --  -10.61126  -1.26970  -1.01609  -0.91994  -0.80480
 Alpha  occ. eigenvalues --   -0.77472  -0.69314  -0.60529  -0.55636  -0.54290
 Alpha  occ. eigenvalues --   -0.53311  -0.51836  -0.48614  -0.47943  -0.46240
 Alpha  occ. eigenvalues --   -0.43908  -0.42281  -0.41832  -0.36459  -0.36080
 Alpha  occ. eigenvalues --   -0.28941
 Alpha virt. eigenvalues --    0.07165   0.09605   0.10801   0.11976   0.13975
 Alpha virt. eigenvalues --    0.14110   0.14643   0.15724   0.17235   0.17875
 Alpha virt. eigenvalues --    0.19051   0.21118   0.22374   0.26557   0.27796
 Alpha virt. eigenvalues --    0.29142   0.31360   0.32013   0.33327   0.34064
 Alpha virt. eigenvalues --    0.37324   0.38161   0.41559   0.43305   0.45726
 Alpha virt. eigenvalues --    0.46760   0.49433   0.51059   0.51088   0.52105
 Alpha virt. eigenvalues --    0.53007   0.53255   0.53641   0.54540   0.54826
 Alpha virt. eigenvalues --    0.56154   0.57930   0.58302   0.58583   0.59240
 Alpha virt. eigenvalues --    0.63779   0.66026   0.67748   0.69088   0.71131
 Alpha virt. eigenvalues --    0.73136   0.76322   0.77701   0.80229   0.83352
 Alpha virt. eigenvalues --    0.85330   0.86542   0.89955   0.93855   0.94449
 Alpha virt. eigenvalues --    0.95362   0.96759   0.99690   1.01042   1.02255
 Alpha virt. eigenvalues --    1.04795   1.05016   1.07014   1.08172   1.09158
 Alpha virt. eigenvalues --    1.11616   1.12081   1.15085   1.15397   1.16938
 Alpha virt. eigenvalues --    1.18587   1.19266   1.20393   1.23026   1.23609
 Alpha virt. eigenvalues --    1.24273   1.26649   1.28913   1.30313   1.32264
 Alpha virt. eigenvalues --    1.33624   1.35634   1.36446   1.38587   1.39705
 Alpha virt. eigenvalues --    1.40030   1.42097   1.43009   1.43773   1.45332
 Alpha virt. eigenvalues --    1.49216   1.50059   1.50627   1.53941   1.56165
 Alpha virt. eigenvalues --    1.58797   1.60955   1.61896   1.63609   1.69549
 Alpha virt. eigenvalues --    1.72785   1.74716   1.77571   1.80137   1.90094
 Alpha virt. eigenvalues --    1.95353   2.00709   2.04516   2.13579   2.19101
 Alpha virt. eigenvalues --    2.22224   2.28868   2.29988   2.36140   2.36990
 Alpha virt. eigenvalues --    2.40740   2.43110   2.44443   2.47631   2.48171
 Alpha virt. eigenvalues --    2.52145   2.56088   2.58188   2.61458   2.62614
 Alpha virt. eigenvalues --    2.68702   2.69381   2.70945   2.74051   2.76798
 Alpha virt. eigenvalues --    2.78159   2.79695   2.83312   2.86867   2.88611
 Alpha virt. eigenvalues --    2.90074   2.92030   2.92266   2.92926   2.94291
 Alpha virt. eigenvalues --    2.95536   2.99806   3.00561   3.03475   3.04283
 Alpha virt. eigenvalues --    3.04876   3.06115   3.10449   3.11973   3.12385
 Alpha virt. eigenvalues --    3.12845   3.14857   3.15560   3.18140   3.18495
 Alpha virt. eigenvalues --    3.19420   3.21205   3.21920   3.23711   3.24109
 Alpha virt. eigenvalues --    3.25307   3.28125   3.29818   3.38316   3.41237
 Alpha virt. eigenvalues --    3.41820   3.43094   3.43945   3.44746   3.45965
 Alpha virt. eigenvalues --    3.47268   3.51376   3.52369   3.53746   3.54278
 Alpha virt. eigenvalues --    3.55078   3.56080   3.58045   3.59392   3.60765
 Alpha virt. eigenvalues --    3.61694   3.63149   3.65676   3.68158   3.70500
 Alpha virt. eigenvalues --    3.71457   3.77694   3.79968   3.83618   3.83863
 Alpha virt. eigenvalues --    3.86615   3.88111   3.90035   3.91656   3.91869
 Alpha virt. eigenvalues --    3.93399   3.94783   3.96531   3.96869   3.97964
 Alpha virt. eigenvalues --    3.99882   4.01206   4.03438   4.04630   4.08950
 Alpha virt. eigenvalues --    4.09673   4.10723   4.13630   4.13768   4.14307
 Alpha virt. eigenvalues --    4.18188   4.19448   4.22626   4.23763   4.24900
 Alpha virt. eigenvalues --    4.25384   4.26798   4.27738   4.31215   4.32520
 Alpha virt. eigenvalues --    4.34408   4.36935   4.39564   4.41179   4.41836
 Alpha virt. eigenvalues --    4.44018   4.45587   4.48459   4.49432   4.51082
 Alpha virt. eigenvalues --    4.55538   4.61806   4.65107   4.66035   4.66474
 Alpha virt. eigenvalues --    4.71537   4.73913   4.80454   4.82220   4.87131
 Alpha virt. eigenvalues --    4.93312   4.95177   4.96359   4.98489   5.00207
 Alpha virt. eigenvalues --    5.01109   5.01455   5.04645   5.05413   5.08334
 Alpha virt. eigenvalues --    5.11004   5.14840   5.17561   5.24862   5.26690
 Alpha virt. eigenvalues --    5.28190   5.29260   5.30707   5.32056   5.34866
 Alpha virt. eigenvalues --    5.35793   5.37755   5.40059   5.40746   5.42070
 Alpha virt. eigenvalues --    5.46431   5.47133   5.51192   5.51359   5.53060
 Alpha virt. eigenvalues --    5.53707   5.56919   5.60662   5.67716   5.68482
 Alpha virt. eigenvalues --    5.69048   5.80952   5.93998   5.96708   5.98076
 Alpha virt. eigenvalues --    6.01718   6.04015   6.06419   6.08080   6.09165
 Alpha virt. eigenvalues --    6.10729   6.26966   6.30642   6.39114   6.42180
 Alpha virt. eigenvalues --    6.64506   6.75338   6.75484   6.83275   6.97138
 Alpha virt. eigenvalues --    7.05575   7.07967   7.21726   7.43091   7.46777
 Alpha virt. eigenvalues --    7.57824   7.75553   9.92566  10.62022  11.83041
 Alpha virt. eigenvalues --   13.45383  13.82199  13.90880
  Beta  occ. eigenvalues --  -19.78177 -19.76331 -10.65914 -10.62827 -10.61519
  Beta  occ. eigenvalues --  -10.61179  -1.25049  -0.98572  -0.90102  -0.80287
  Beta  occ. eigenvalues --   -0.77055  -0.66804  -0.57279  -0.54639  -0.53905
  Beta  occ. eigenvalues --   -0.52703  -0.50179  -0.48007  -0.45732  -0.44393
  Beta  occ. eigenvalues --   -0.42875  -0.41941  -0.41404  -0.34951  -0.32877
  Beta virt. eigenvalues --   -0.03799   0.07249   0.09727   0.10961   0.12171
  Beta virt. eigenvalues --    0.14219   0.14550   0.14967   0.15803   0.17280
  Beta virt. eigenvalues --    0.18009   0.19586   0.21482   0.22724   0.26738
  Beta virt. eigenvalues --    0.28152   0.29345   0.32011   0.32378   0.33607
  Beta virt. eigenvalues --    0.35088   0.37476   0.38648   0.42247   0.43930
  Beta virt. eigenvalues --    0.45840   0.47526   0.49813   0.51157   0.51323
  Beta virt. eigenvalues --    0.52652   0.53258   0.53419   0.53793   0.55074
  Beta virt. eigenvalues --    0.55864   0.57516   0.58784   0.58904   0.59114
  Beta virt. eigenvalues --    0.59995   0.64337   0.66380   0.68029   0.69360
  Beta virt. eigenvalues --    0.71251   0.73831   0.76545   0.78177   0.80549
  Beta virt. eigenvalues --    0.83727   0.85530   0.86929   0.90257   0.94130
  Beta virt. eigenvalues --    0.94660   0.95435   0.96990   0.99868   1.01369
  Beta virt. eigenvalues --    1.02663   1.04904   1.05212   1.07399   1.08660
  Beta virt. eigenvalues --    1.09339   1.11708   1.12434   1.15281   1.15883
  Beta virt. eigenvalues --    1.17369   1.18738   1.19434   1.20661   1.23308
  Beta virt. eigenvalues --    1.24073   1.24504   1.27121   1.29302   1.31237
  Beta virt. eigenvalues --    1.32425   1.34123   1.35946   1.36596   1.38846
  Beta virt. eigenvalues --    1.39820   1.40172   1.42214   1.43216   1.44216
  Beta virt. eigenvalues --    1.45803   1.49402   1.50299   1.51226   1.54363
  Beta virt. eigenvalues --    1.56424   1.59162   1.61235   1.62325   1.64057
  Beta virt. eigenvalues --    1.70224   1.73249   1.75282   1.78547   1.80455
  Beta virt. eigenvalues --    1.92364   1.96330   2.01395   2.05415   2.13866
  Beta virt. eigenvalues --    2.20751   2.22734   2.29684   2.30542   2.36408
  Beta virt. eigenvalues --    2.37477   2.41391   2.44000   2.44866   2.47790
  Beta virt. eigenvalues --    2.48799   2.52538   2.56359   2.59053   2.62002
  Beta virt. eigenvalues --    2.63011   2.69748   2.70209   2.71099   2.74376
  Beta virt. eigenvalues --    2.77359   2.78615   2.80195   2.83197   2.86986
  Beta virt. eigenvalues --    2.89059   2.90554   2.92126   2.92365   2.93189
  Beta virt. eigenvalues --    2.94409   2.96074   3.00245   3.00743   3.03846
  Beta virt. eigenvalues --    3.04655   3.05174   3.06741   3.10716   3.12011
  Beta virt. eigenvalues --    3.12553   3.13071   3.14983   3.15740   3.18301
  Beta virt. eigenvalues --    3.18601   3.19673   3.21625   3.22230   3.24143
  Beta virt. eigenvalues --    3.24302   3.25372   3.29024   3.30494   3.40303
  Beta virt. eigenvalues --    3.41673   3.41997   3.43758   3.44614   3.45492
  Beta virt. eigenvalues --    3.46292   3.47592   3.51449   3.52610   3.53975
  Beta virt. eigenvalues --    3.54369   3.55397   3.56291   3.58326   3.59769
  Beta virt. eigenvalues --    3.61030   3.61867   3.63529   3.65981   3.68164
  Beta virt. eigenvalues --    3.70958   3.71889   3.77935   3.80683   3.83948
  Beta virt. eigenvalues --    3.84244   3.86891   3.88353   3.90249   3.92066
  Beta virt. eigenvalues --    3.92300   3.93678   3.94886   3.96667   3.97167
  Beta virt. eigenvalues --    3.98191   3.99989   4.01492   4.03526   4.04907
  Beta virt. eigenvalues --    4.09414   4.09764   4.10847   4.13964   4.14116
  Beta virt. eigenvalues --    4.14698   4.18411   4.19542   4.22885   4.23980
  Beta virt. eigenvalues --    4.25386   4.25742   4.27166   4.27912   4.31469
  Beta virt. eigenvalues --    4.32674   4.35064   4.36942   4.40096   4.41360
  Beta virt. eigenvalues --    4.42365   4.44188   4.46020   4.48679   4.49593
  Beta virt. eigenvalues --    4.51359   4.56037   4.62404   4.66040   4.66611
  Beta virt. eigenvalues --    4.67394   4.71961   4.74378   4.80792   4.82497
  Beta virt. eigenvalues --    4.87822   4.93548   4.95346   4.96721   4.98724
  Beta virt. eigenvalues --    5.00345   5.01358   5.01741   5.04785   5.05713
  Beta virt. eigenvalues --    5.08619   5.11706   5.15410   5.18359   5.25037
  Beta virt. eigenvalues --    5.27172   5.28351   5.29539   5.31303   5.32293
  Beta virt. eigenvalues --    5.35269   5.36127   5.38188   5.40403   5.41215
  Beta virt. eigenvalues --    5.42492   5.46776   5.47595   5.51404   5.51575
  Beta virt. eigenvalues --    5.53304   5.53898   5.57157   5.61126   5.68204
  Beta virt. eigenvalues --    5.69201   5.69994   5.81367   5.94140   5.97276
  Beta virt. eigenvalues --    5.99272   6.02530   6.04098   6.06988   6.08320
  Beta virt. eigenvalues --    6.09539   6.11262   6.27598   6.32663   6.39848
  Beta virt. eigenvalues --    6.43311   6.65469   6.77206   6.78479   6.84575
  Beta virt. eigenvalues --    6.98946   7.07018   7.09171   7.24146   7.43237
  Beta virt. eigenvalues --    7.48959   7.59641   7.76209   9.93599  10.63021
  Beta virt. eigenvalues --   11.83989  13.45385  13.82264  13.90932
          Condensed to atoms (all electrons):
               1          2          3          4          5          6
     1  C    4.837851   0.408476   0.413542   0.335084  -0.034771  -0.000972
     2  H    0.408476   0.592917  -0.026873  -0.037641   0.006628  -0.000391
     3  H    0.413542  -0.026873   0.565084  -0.035660  -0.004171   0.000140
     4  C    0.335084  -0.037641  -0.035660   5.148369   0.408533  -0.000598
     5  H   -0.034771   0.006628  -0.004171   0.408533   0.551875   0.000051
     6  C   -0.000972  -0.000391   0.000140  -0.000598   0.000051   4.600261
     7  H   -0.001010  -0.000979   0.000062   0.001142  -0.000124   0.385120
     8  H    0.000101   0.000032  -0.000004   0.000162   0.000004   0.400176
     9  H    0.000011   0.000073   0.000018  -0.000835   0.000010   0.413376
    10  O    0.000043   0.000285  -0.000084  -0.000073   0.000342   0.306269
    11  O    0.006303   0.000126   0.001007  -0.082005   0.000877  -0.041362
    12  H   -0.013596  -0.003914  -0.001699   0.233002  -0.011814   0.002631
    13  H    0.395623  -0.036245  -0.030694  -0.035291  -0.004540  -0.000025
    14  C   -0.056709  -0.004004   0.006510   0.334285  -0.031869  -0.002503
    15  H    0.006349   0.000036  -0.000297  -0.033704  -0.003870   0.000005
    16  H   -0.003724   0.004079  -0.000006  -0.036267   0.006684  -0.000586
    17  H   -0.002266  -0.000599  -0.000274  -0.038320  -0.004696  -0.000038
               7          8          9         10         11         12
     1  C   -0.001010   0.000101   0.000011   0.000043   0.006303  -0.013596
     2  H   -0.000979   0.000032   0.000073   0.000285   0.000126  -0.003914
     3  H    0.000062  -0.000004   0.000018  -0.000084   0.001007  -0.001699
     4  C    0.001142   0.000162  -0.000835  -0.000073  -0.082005   0.233002
     5  H   -0.000124   0.000004   0.000010   0.000342   0.000877  -0.011814
     6  C    0.385120   0.400176   0.413376   0.306269  -0.041362   0.002631
     7  H    0.707988  -0.038827  -0.060453  -0.052343  -0.003463   0.003401
     8  H   -0.038827   0.588197  -0.027638  -0.026079   0.006656  -0.000828
     9  H   -0.060453  -0.027638   0.613664  -0.038484   0.004707   0.001147
    10  O   -0.052343  -0.026079  -0.038484   7.944617   0.071836  -0.025226
    11  O   -0.003463   0.006656   0.004707   0.071836   8.081069   0.184480
    12  H    0.003401  -0.000828   0.001147  -0.025226   0.184480   0.428723
    13  H    0.000163   0.000007  -0.000006  -0.000032   0.000001   0.002917
    14  C   -0.001845  -0.000045   0.000520   0.005828  -0.002568  -0.008477
    15  H    0.000045  -0.000087   0.000032   0.002191   0.001089  -0.002226
    16  H   -0.002079   0.000208   0.000087   0.001277   0.000443  -0.005459
    17  H   -0.000129  -0.000008   0.000012   0.000352  -0.000309   0.003285
              13         14         15         16         17
     1  C    0.395623  -0.056709   0.006349  -0.003724  -0.002266
     2  H   -0.036245  -0.004004   0.000036   0.004079  -0.000599
     3  H   -0.030694   0.006510  -0.000297  -0.000006  -0.000274
     4  C   -0.035291   0.334285  -0.033704  -0.036267  -0.038320
     5  H   -0.004540  -0.031869  -0.003870   0.006684  -0.004696
     6  C   -0.000025  -0.002503   0.000005  -0.000586  -0.000038
     7  H    0.000163  -0.001845   0.000045  -0.002079  -0.000129
     8  H    0.000007  -0.000045  -0.000087   0.000208  -0.000008
     9  H   -0.000006   0.000520   0.000032   0.000087   0.000012
    10  O   -0.000032   0.005828   0.002191   0.001277   0.000352
    11  O    0.000001  -0.002568   0.001089   0.000443  -0.000309
    12  H    0.002917  -0.008477  -0.002226  -0.005459   0.003285
    13  H    0.606826  -0.001552  -0.000351  -0.000722   0.003576
    14  C   -0.001552   4.837323   0.412243   0.405456   0.399327
    15  H   -0.000351   0.412243   0.550969  -0.025310  -0.029586
    16  H   -0.000722   0.405456  -0.025310   0.594786  -0.036087
    17  H    0.003576   0.399327  -0.029586  -0.036087   0.603155
          Atomic-Atomic Spin Densities.
               1          2          3          4          5          6
     1  C   -0.021784   0.003787   0.003918  -0.027221   0.004102  -0.000177
     2  H    0.003787   0.008161   0.001051  -0.004832   0.000274  -0.000178
     3  H    0.003918   0.001051   0.005018  -0.004176   0.000803  -0.000020
     4  C   -0.027221  -0.004832  -0.004176   0.670771   0.003270   0.001261
     5  H    0.004102   0.000274   0.000803   0.003270  -0.019165  -0.000047
     6  C   -0.000177  -0.000178  -0.000020   0.001261  -0.000047  -0.005334
     7  H    0.000989   0.001104   0.000136  -0.005020   0.000162   0.002030
     8  H   -0.000017  -0.000011  -0.000001   0.000118  -0.000003   0.000648
     9  H   -0.000168  -0.000132  -0.000032   0.001084  -0.000029  -0.001772
    10  O   -0.000694  -0.000256  -0.000046   0.011842  -0.000414   0.002002
    11  O    0.006300   0.001191   0.000790  -0.088692   0.003507  -0.002947
    12  H   -0.005117  -0.000652  -0.000490   0.075661   0.001642   0.001084
    13  H    0.004121  -0.005146  -0.003342  -0.012240  -0.002219   0.000038
    14  C    0.004507   0.000869   0.000110  -0.019360   0.002674  -0.000472
    15  H    0.000276   0.000097   0.000025  -0.003803   0.000963  -0.000099
    16  H    0.001009   0.000635   0.000067  -0.004096   0.000205  -0.000497
    17  H   -0.000999  -0.000904  -0.000201  -0.015820  -0.002720   0.000094
               7          8          9         10         11         12
     1  C    0.000989  -0.000017  -0.000168  -0.000694   0.006300  -0.005117
     2  H    0.001104  -0.000011  -0.000132  -0.000256   0.001191  -0.000652
     3  H    0.000136  -0.000001  -0.000032  -0.000046   0.000790  -0.000490
     4  C   -0.005020   0.000118   0.001084   0.011842  -0.088692   0.075661
     5  H    0.000162  -0.000003  -0.000029  -0.000414   0.003507   0.001642
     6  C    0.002030   0.000648  -0.001772   0.002002  -0.002947   0.001084
     7  H    0.004379  -0.000808  -0.001607  -0.001559   0.004305  -0.003668
     8  H   -0.000808  -0.001917   0.000937   0.000162  -0.000210   0.000115
     9  H   -0.001607   0.000937   0.002948  -0.000437  -0.000228   0.001339
    10  O   -0.001559   0.000162  -0.000437   0.051256  -0.042609   0.010472
    11  O    0.004305  -0.000210  -0.000228  -0.042609   0.606955  -0.060884
    12  H   -0.003668   0.000115   0.001339   0.010472  -0.060884  -0.088543
    13  H   -0.000240   0.000001   0.000017   0.000062  -0.000602   0.000672
    14  C    0.000950  -0.000044  -0.000124  -0.002056   0.005971  -0.000985
    15  H    0.000206  -0.000006  -0.000027  -0.000923   0.001299  -0.000837
    16  H    0.001204  -0.000048  -0.000107  -0.001253   0.001269  -0.000431
    17  H   -0.000275   0.000007   0.000016   0.000331  -0.000843   0.001083
              13         14         15         16         17
     1  C    0.004121   0.004507   0.000276   0.001009  -0.000999
     2  H   -0.005146   0.000869   0.000097   0.000635  -0.000904
     3  H   -0.003342   0.000110   0.000025   0.000067  -0.000201
     4  C   -0.012240  -0.019360  -0.003803  -0.004096  -0.015820
     5  H   -0.002219   0.002674   0.000963   0.000205  -0.002720
     6  C    0.000038  -0.000472  -0.000099  -0.000497   0.000094
     7  H   -0.000240   0.000950   0.000206   0.001204  -0.000275
     8  H    0.000001  -0.000044  -0.000006  -0.000048   0.000007
     9  H    0.000017  -0.000124  -0.000027  -0.000107   0.000016
    10  O    0.000062  -0.002056  -0.000923  -0.001253   0.000331
    11  O   -0.000602   0.005971   0.001299   0.001269  -0.000843
    12  H    0.000672  -0.000985  -0.000837  -0.000431   0.001083
    13  H    0.051822  -0.000492  -0.000194  -0.000669   0.003850
    14  C   -0.000492  -0.031435   0.003826   0.003409   0.003778
    15  H   -0.000194   0.003826   0.007204   0.001371  -0.004957
    16  H   -0.000669   0.003409   0.001371   0.009256  -0.005902
    17  H    0.003850   0.003778  -0.004957  -0.005902   0.064386
 Mulliken charges and spin densities:
               1          2
     1  C   -0.290337  -0.027169
     2  H    0.097995   0.005059
     3  H    0.113399   0.003610
     4  C   -0.160183   0.578747
     5  H    0.120850  -0.006994
     6  C   -0.061556  -0.004387
     7  H    0.063332   0.002290
     8  H    0.097972  -0.001075
     9  H    0.093759   0.001677
    10  O   -0.190719   0.025879
    11  O   -0.228888   0.434572
    12  H    0.213654  -0.069539
    13  H    0.100345   0.035440
    14  C   -0.291920  -0.028874
    15  H    0.122473   0.004420
    16  H    0.097217   0.005422
    17  H    0.102606   0.040922
 Sum of Mulliken charges =  -0.00000   1.00000
 Mulliken charges and spin densities with hydrogens summed into heavy atoms:
               1          2
     1  C    0.021401   0.016940
     4  C   -0.039333   0.571753
     6  C    0.193507  -0.001495
    10  O   -0.190719   0.025879
    11  O   -0.015233   0.365033
    14  C    0.030376   0.021890
 APT charges:
               1
     1  C   -0.057266
     2  H   -0.006324
     3  H   -0.001671
     4  C    0.536230
     5  H   -0.084892
     6  C    0.424333
     7  H   -0.038513
     8  H   -0.007288
     9  H   -0.028945
    10  O   -0.436582
    11  O    0.152894
    12  H   -0.354111
    13  H   -0.023919
    14  C   -0.073959
    15  H    0.009350
    16  H   -0.003081
    17  H   -0.006257
 Sum of APT charges =  -0.00000
 APT charges with hydrogens summed into heavy atoms:
               1
     1  C   -0.089180
     4  C    0.451338
     6  C    0.349588
    10  O   -0.436582
    11  O   -0.201217
    14  C   -0.073947
 Electronic spatial extent (au):  <R**2>=            837.5298
 Charge=             -0.0000 electrons
 Dipole moment (field-independent basis, Debye):
    X=              1.5317    Y=             -0.0476    Z=              2.0434  Tot=              2.5542
 Quadrupole moment (field-independent basis, Debye-Ang):
   XX=            -36.7806   YY=            -39.7482   ZZ=            -39.9536
   XY=              0.5122   XZ=             -4.6351   YZ=             -0.3888
 Traceless Quadrupole moment (field-independent basis, Debye-Ang):
   XX=              2.0469   YY=             -0.9208   ZZ=             -1.1261
   XY=              0.5122   XZ=             -4.6351   YZ=             -0.3888
 Octapole moment (field-independent basis, Debye-Ang**2):
  XXX=            -13.3307  YYY=             -0.5818  ZZZ=             -3.0382  XYY=             -2.8868
  XXY=             -1.6580  XXZ=              5.0005  XZZ=             -2.6729  YZZ=              0.7663
  YYZ=             -1.8956  XYZ=              0.0802
 Hexadecapole moment (field-independent basis, Debye-Ang**3):
 XXXX=           -679.4115 YYYY=           -231.5484 ZZZZ=           -170.0848 XXXY=              5.0341
 XXXZ=             -9.9931 YYYX=             -1.6878 YYYZ=              1.4675 ZZZX=             -2.6505
 ZZZY=              0.3278 XXYY=           -154.4220 XXZZ=           -144.2795 YYZZ=            -67.1358
 XXYZ=              3.8549 YYXZ=             -1.7708 ZZXY=             -2.1512
 N-N= 2.568822987942D+02 E-N=-1.236536094871D+03  KE= 3.074566340739D+02
  Exact polarizability:  97.997   1.572  61.015  -0.632   1.482  58.125
 Approx polarizability:  85.967  -0.230  66.190   0.758   3.365  67.217
                          Isotropic Fermi Contact Couplings
        Atom                 a.u.       MegaHertz       Gauss      10(-4) cm-1
     1  C(13)             -0.01060     -11.91546      -4.25173      -3.97457
     2  H(1)               0.00256      11.46432       4.09075       3.82409
     3  H(1)               0.00272      12.16992       4.34253       4.05945
     4  C(13)              0.09231     103.77153      37.02826      34.61446
     5  H(1)              -0.00281     -12.57610      -4.48747      -4.19494
     6  C(13)             -0.00369      -4.14384      -1.47862      -1.38224
     7  H(1)               0.00188       8.41106       3.00128       2.80563
     8  H(1)              -0.00015      -0.65211      -0.23269      -0.21752
     9  H(1)               0.00043       1.92829       0.68806       0.64321
    10  O(17)              0.01515      -9.18604      -3.27781      -3.06413
    11  O(17)              0.05446     -33.01155     -11.77934     -11.01147
    12  H(1)              -0.01899     -84.86939     -30.28351     -28.30938
    13  H(1)               0.01688      75.47110      26.92996      25.17445
    14  C(13)             -0.00875      -9.83674      -3.50999      -3.28118
    15  H(1)               0.00321      14.36756       5.12670       4.79250
    16  H(1)               0.00335      14.99380       5.35016       5.00139
    17  H(1)               0.01923      85.94113      30.66593      28.66688
 --------------------------------------------------------
       Center         ----  Spin Dipole Couplings  ----
                      3XX-RR        3YY-RR        3ZZ-RR
 --------------------------------------------------------
     1   Atom        0.005948     -0.005205     -0.000742
     2   Atom       -0.004668     -0.002657      0.007326
     3   Atom       -0.002415      0.009443     -0.007027
     4   Atom        0.588830     -0.277735     -0.311094
     5   Atom        0.005415     -0.040173      0.034758
     6   Atom       -0.000177     -0.005469      0.005645
     7   Atom       -0.001915     -0.005506      0.007421
     8   Atom        0.001020     -0.003217      0.002197
     9   Atom        0.001984     -0.003413      0.001429
    10   Atom        0.349628     -0.216987     -0.132641
    11   Atom        1.107923     -0.570868     -0.537054
    12   Atom        0.204492     -0.104480     -0.100011
    13   Atom        0.004641     -0.002069     -0.002572
    14   Atom       -0.003189      0.011812     -0.008623
    15   Atom       -0.004555      0.012474     -0.007919
    16   Atom       -0.004333     -0.000311      0.004643
    17   Atom        0.001294      0.003226     -0.004520
 --------------------------------------------------------
                        XY            XZ            YZ
 --------------------------------------------------------
     1   Atom       -0.011573      0.017837     -0.012033
     2   Atom       -0.000438      0.002719     -0.008097
     3   Atom       -0.006100      0.001736     -0.003456
     4   Atom        0.267337      0.195732      0.056051
     5   Atom        0.010505     -0.019969      0.002617
     6   Atom       -0.000977     -0.007454     -0.000730
     7   Atom        0.000637     -0.003823     -0.000882
     8   Atom       -0.000995     -0.004386      0.001533
     9   Atom        0.002636     -0.006181     -0.002764
    10   Atom        0.119405      0.182399      0.009133
    11   Atom        0.843402      0.891894      0.371405
    12   Atom        0.070512      0.080245      0.019591
    13   Atom       -0.002245      0.005526     -0.003952
    14   Atom        0.013315      0.007666      0.015233
    15   Atom       -0.001433      0.000424     -0.000304
    16   Atom       -0.001373     -0.001623      0.009608
    17   Atom        0.004434      0.002654      0.005080
 --------------------------------------------------------


 ---------------------------------------------------------------------------------
              Anisotropic Spin Dipole Couplings in Principal Axis System
 ---------------------------------------------------------------------------------

       Atom             a.u.   MegaHertz   Gauss  10(-4) cm-1        Axes

              Baa    -0.0165    -2.208    -0.788    -0.736 -0.4167  0.4288  0.8016
     1 C(13)  Bbb    -0.0124    -1.664    -0.594    -0.555  0.6037  0.7898 -0.1086
              Bcc     0.0289     3.872     1.381     1.291  0.6796 -0.4387  0.5880
 
              Baa    -0.0075    -4.018    -1.434    -1.340 -0.3503  0.7940  0.4968
     2 H(1)   Bbb    -0.0047    -2.514    -0.897    -0.839  0.9243  0.3789  0.0462
              Bcc     0.0122     6.532     2.331     2.179  0.1516 -0.4754  0.8666
 
              Baa    -0.0078    -4.163    -1.485    -1.388 -0.1556  0.1409  0.9777
     3 H(1)   Bbb    -0.0050    -2.652    -0.946    -0.885  0.9099  0.4058  0.0863
              Bcc     0.0128     6.815     2.432     2.273 -0.3846  0.9030 -0.1913
 
              Baa    -0.3537   -47.464   -16.936   -15.832 -0.2141  0.9426 -0.2562
     4 C(13)  Bbb    -0.3517   -47.200   -16.842   -15.744 -0.2537  0.1996  0.9465
              Bcc     0.7054    94.664    33.778    31.577  0.9433  0.2677  0.1964
 
              Baa    -0.0431   -23.016    -8.213    -7.677 -0.2481  0.9640 -0.0960
     5 H(1)   Bbb    -0.0018    -0.960    -0.343    -0.320  0.8542  0.2644  0.4477
              Bcc     0.0449    23.976     8.555     7.997 -0.4569 -0.0291  0.8890
 
              Baa    -0.0066    -0.885    -0.316    -0.295  0.5582  0.7355  0.3840
     6 C(13)  Bbb    -0.0041    -0.556    -0.198    -0.186 -0.6087  0.6775 -0.4129
              Bcc     0.0107     1.441     0.514     0.481 -0.5638 -0.0032  0.8259
 
              Baa    -0.0056    -2.999    -1.070    -1.000 -0.1446  0.9892  0.0245
     7 H(1)   Bbb    -0.0032    -1.730    -0.617    -0.577  0.9302  0.1275  0.3441
              Bcc     0.0089     4.729     1.687     1.577 -0.3372 -0.0726  0.9386
 
              Baa    -0.0036    -1.941    -0.693    -0.647 -0.1085  0.9384 -0.3281
     8 H(1)   Bbb    -0.0027    -1.460    -0.521    -0.487  0.7581  0.2916  0.5833
              Bcc     0.0064     3.401     1.214     1.135 -0.6430  0.1855  0.7431
 
              Baa    -0.0047    -2.511    -0.896    -0.838  0.2469  0.7658  0.5937
     9 H(1)   Bbb    -0.0044    -2.324    -0.829    -0.775  0.6819 -0.5726  0.4551
              Bcc     0.0091     4.835     1.725     1.613  0.6885  0.2925 -0.6636
 
              Baa    -0.2521    18.241     6.509     6.085 -0.2879  0.8824  0.3722
    10 O(17)  Bbb    -0.1796    12.994     4.637     4.334 -0.2037 -0.4361  0.8765
              Bcc     0.4317   -31.235   -11.146   -10.419  0.9357  0.1766  0.3053
 
              Baa    -0.9282    67.165    23.966    22.404 -0.3103 -0.2272  0.9231
    11 O(17)  Bbb    -0.9213    66.667    23.789    22.238 -0.4137  0.9065  0.0840
              Bcc     1.8496  -133.832   -47.755   -44.642  0.8559  0.3558  0.3752
 
              Baa    -0.1220   -65.084   -23.224   -21.710 -0.0220 -0.7049  0.7089
    12 H(1)   Bbb    -0.1179   -62.907   -22.447   -20.984 -0.3137  0.6781  0.6646
              Bcc     0.2399   127.991    45.670    42.693  0.9493  0.2078  0.2361
 
              Baa    -0.0070    -3.751    -1.338    -1.251 -0.2836  0.5157  0.8085
    13 H(1)   Bbb    -0.0020    -1.063    -0.379    -0.355  0.5297  0.7870 -0.3162
              Bcc     0.0090     4.814     1.718     1.606  0.7993 -0.3386  0.4964
 
              Baa    -0.0168    -2.252    -0.804    -0.751 -0.0692 -0.4438  0.8935
    14 C(13)  Bbb    -0.0108    -1.451    -0.518    -0.484  0.8921 -0.4283 -0.1436
              Bcc     0.0276     3.703     1.321     1.235  0.4464  0.7872  0.4255
 
              Baa    -0.0080    -4.254    -1.518    -1.419 -0.1205  0.0063  0.9927
    15 H(1)   Bbb    -0.0046    -2.469    -0.881    -0.823  0.9892  0.0850  0.1196
              Bcc     0.0126     6.722     2.399     2.242 -0.0836  0.9964 -0.0165
 
              Baa    -0.0078    -4.139    -1.477    -1.381  0.0284  0.7920 -0.6099
    16 H(1)   Bbb    -0.0046    -2.454    -0.876    -0.819  0.9916  0.0547  0.1172
              Bcc     0.0124     6.594     2.353     2.199 -0.1262  0.6081  0.7838
 
              Baa    -0.0071    -3.768    -1.344    -1.257 -0.0654 -0.4190  0.9056
    17 H(1)   Bbb    -0.0021    -1.104    -0.394    -0.368  0.8328 -0.5229 -0.1818
              Bcc     0.0091     4.872     1.738     1.625  0.5497  0.7423  0.3831
 

 ---------------------------------------------------------------------------------

 Calling FoFJK, ICntrl=  10100127 FMM=F ISym2X=0 I1Cent= 0 IOpClX= 1 NMat=1 NMatS=1 NMatT=0.
 -------------------------------------------------------------------
 Center     Atomic                   Forces (Hartrees/Bohr)
 Number     Number              X              Y              Z
 -------------------------------------------------------------------
      1        6          -0.000000718    0.000000454    0.000001310
      2        1           0.000001225   -0.000000470   -0.000000043
      3        1           0.000000060   -0.000000342    0.000000224
      4        6           0.000000462    0.000001421    0.000001790
      5        1           0.000001117   -0.000000787    0.000000722
      6        6           0.000002168    0.000001553   -0.000003426
      7        1          -0.000003312   -0.000001475   -0.000000673
      8        1           0.000001064    0.000000367    0.000000463
      9        1          -0.000001107    0.000000269    0.000000154
     10        8           0.000008961   -0.000032427   -0.000014618
     11        8          -0.000015458    0.000032579    0.000016604
     12        1          -0.000002153   -0.000004436    0.000000708
     13        1           0.000000074    0.000000574    0.000000109
     14        6           0.000003752    0.000001684   -0.000000608
     15        1          -0.000000798   -0.000000211    0.000000286
     16        1           0.000003829    0.000001675   -0.000001824
     17        1           0.000000834   -0.000000426   -0.000001178
 -------------------------------------------------------------------
 Cartesian Forces:  Max     0.000032579 RMS     0.000007714
 FormGI is forming the generalized inverse of G from B-inverse, IUseBI=4.

 GradGradGradGradGradGradGradGradGradGradGradGradGradGradGradGradGradGrad
 Berny optimization.
 Internal  Forces:  Max     0.000034727 RMS     0.000007727
 Search for a saddle point.
 Step number   1 out of a maximum of  102 on scan point     1 out of    37
 All quantities printed in internal units (Hartrees-Bohrs-Radians)
 Swapping is turned off.
 Second derivative matrix not updated -- analytic derivatives used.
 ITU=  0
     Eigenvalues ---   -0.07210   0.00136   0.00179   0.00608   0.01707
     Eigenvalues ---    0.02326   0.02522   0.03467   0.04286   0.04437
     Eigenvalues ---    0.04450   0.04504   0.04895   0.06075   0.08506
     Eigenvalues ---    0.08534   0.09779   0.11940   0.12172   0.12393
     Eigenvalues ---    0.13039   0.13851   0.14371   0.15367   0.16425
     Eigenvalues ---    0.16767   0.18098   0.18589   0.19510   0.25428
     Eigenvalues ---    0.30109   0.31362   0.31865   0.32766   0.32952
     Eigenvalues ---    0.33522   0.33884   0.34095   0.34246   0.34420
     Eigenvalues ---    0.34754   0.34952   0.35529   0.404711000.00000
     Eigenvalues --- 1000.000001000.000001000.000001000.000001000.00000
     Eigenvalues --- 1000.000001000.000001000.000001000.000001000.00000
     Eigenvalues --- 1000.000001000.000001000.000001000.000001000.00000
     Eigenvalues --- 1000.000001000.000001000.000001000.000001000.00000
     Eigenvalues --- 1000.000001000.00000
 Eigenvectors required to have negative eigenvalues:
                          R13       R6        R12       A20       D4
   1                    0.69650  -0.66135  -0.15351   0.07929  -0.05961
                          D14       D3        D12       D7        D23
   1                    0.05866   0.05369  -0.05292  -0.05136   0.05059
 RFO step:  Lambda0=3.609235341D-10 Lambda=-3.41918285D-08.
 Linear search not attempted -- option 19 set.
 Iteration  1 RMS(Cart)=  0.00058751 RMS(Int)=  0.00000012
 Iteration  2 RMS(Cart)=  0.00000016 RMS(Int)=  0.00000000
 Iteration  1 RMS(Cart)=  0.00000000 RMS(Int)=  0.00000000
 Variable       Old X    -DE/DX   Delta X   Delta X   Delta X     New X
                                 (Linear)    (Quad)   (Total)
    R1        2.05951  -0.00000   0.00000   0.00000   0.00000   2.05951
    R2        2.05688   0.00000   0.00000   0.00000   0.00000   2.05688
    R3        2.84270   0.00000   0.00000  -0.00000  -0.00000   2.84270
    R4        2.06896   0.00000   0.00000   0.00000   0.00000   2.06896
    R5        2.05707  -0.00000   0.00000   0.00000   0.00000   2.05708
    R6        2.52707   0.00001   0.00000   0.00009   0.00009   2.52716
    R7        2.84034   0.00000   0.00000  -0.00001  -0.00001   2.84034
    R8        2.06193  -0.00000   0.00000  -0.00001  -0.00001   2.06192
    R9        2.05635  -0.00000   0.00000  -0.00000  -0.00000   2.05635
   R10        2.05735   0.00000   0.00000   0.00001   0.00001   2.05735
   R11        2.68340  -0.00000   0.00000  -0.00001  -0.00001   2.68339
   R12        2.66130  -0.00003   0.00000  -0.00013  -0.00013   2.66116
   R13        2.24554   0.00001   0.00000  -0.00005  -0.00005   2.24549
   R14        2.05584  -0.00000   0.00000   0.00000   0.00000   2.05584
   R15        2.05948  -0.00000   0.00000  -0.00000  -0.00000   2.05948
   R16        2.06951   0.00000   0.00000  -0.00000  -0.00000   2.06951
    A1        1.88993  -0.00000   0.00000   0.00000   0.00000   1.88993
    A2        1.94153   0.00000   0.00000   0.00002   0.00002   1.94155
    A3        1.87258  -0.00000   0.00000  -0.00001  -0.00001   1.87257
    A4        1.95100   0.00000   0.00000  -0.00000  -0.00000   1.95100
    A5        1.87723   0.00000   0.00000   0.00000   0.00000   1.87723
    A6        1.92854  -0.00000   0.00000  -0.00001  -0.00001   1.92853
    A7        1.98691  -0.00000   0.00000  -0.00004  -0.00004   1.98687
    A8        1.85412  -0.00000   0.00000   0.00003   0.00003   1.85415
    A9        2.04388   0.00000   0.00000   0.00003   0.00003   2.04392
   A10        1.73395  -0.00000   0.00000  -0.00011  -0.00011   1.73383
   A11        1.98578  -0.00000   0.00000  -0.00003  -0.00003   1.98575
   A12        1.81451   0.00001   0.00000   0.00012   0.00012   1.81463
   A13        1.91725  -0.00000   0.00000   0.00000   0.00000   1.91725
   A14        1.91542  -0.00000   0.00000  -0.00001  -0.00001   1.91541
   A15        1.93686   0.00000   0.00000  -0.00000  -0.00000   1.93686
   A16        1.92435  -0.00000   0.00000  -0.00000  -0.00000   1.92435
   A17        1.83795  -0.00000   0.00000   0.00000   0.00000   1.83796
   A18        1.93088  -0.00000   0.00000   0.00001   0.00001   1.93088
   A19        1.88104   0.00000   0.00000   0.00002   0.00002   1.88106
   A20        1.82339   0.00003   0.00000   0.00012   0.00012   1.82351
   A21        1.94946   0.00000   0.00000  -0.00001  -0.00001   1.94945
   A22        1.94274   0.00000   0.00000   0.00001   0.00001   1.94275
   A23        1.92626  -0.00000   0.00000  -0.00001  -0.00001   1.92625
   A24        1.88685  -0.00000   0.00000   0.00001   0.00001   1.88686
   A25        1.88261   0.00000   0.00000  -0.00001  -0.00001   1.88260
   A26        1.87311  -0.00000   0.00000   0.00000   0.00000   1.87311
   A27        3.12014   0.00003   0.00000   0.00047   0.00047   3.12060
   A28        3.10617   0.00001   0.00000   0.00004   0.00004   3.10621
    D1       -3.00670   0.00000   0.00000   0.00002   0.00002  -3.00669
    D2       -1.11691  -0.00001   0.00000  -0.00011  -0.00011  -1.11702
    D3        0.89990   0.00000   0.00000   0.00008   0.00008   0.89998
    D4       -0.89157   0.00000   0.00000   0.00003   0.00003  -0.89154
    D5        0.99822  -0.00001   0.00000  -0.00010  -0.00010   0.99812
    D6        3.01503   0.00000   0.00000   0.00009   0.00009   3.01512
    D7        1.19846   0.00000   0.00000   0.00002   0.00002   1.19848
    D8        3.08825  -0.00001   0.00000  -0.00011  -0.00011   3.08815
    D9       -1.17813   0.00000   0.00000   0.00008   0.00008  -1.17804
   D10        1.92622  -0.00001   0.00000   0.00000   0.00000   1.92622
   D11       -3.00561  -0.00000   0.00000   0.00036   0.00036  -3.00525
   D12       -0.89466  -0.00000   0.00000   0.00038   0.00038  -0.89428
   D13        1.18331  -0.00000   0.00000   0.00039   0.00039   1.18370
   D14        0.90052   0.00000   0.00000   0.00042   0.00042   0.90094
   D15        3.01147   0.00000   0.00000   0.00044   0.00044   3.01191
   D16       -1.19375   0.00000   0.00000   0.00045   0.00045  -1.19330
   D17       -0.96706   0.00000   0.00000   0.00050   0.00050  -0.96656
   D18        1.14389   0.00000   0.00000   0.00052   0.00052   1.14441
   D19       -3.06133   0.00000   0.00000   0.00053   0.00053  -3.06080
   D20        1.13904  -0.00000   0.00000  -0.00036  -0.00036   1.13868
   D21       -3.07047  -0.00000   0.00000  -0.00035  -0.00035  -3.07082
   D22       -0.99146  -0.00000   0.00000  -0.00035  -0.00035  -0.99181
   D23       -1.64156  -0.00001   0.00000  -0.00001  -0.00001  -1.64156
         Item               Value     Threshold  Converged?
 Maximum Force            0.000035     0.000450     YES
 RMS     Force            0.000008     0.000300     YES
 Maximum Displacement     0.002181     0.001800     NO 
 RMS     Displacement     0.000587     0.001200     YES
 Predicted change in Energy=-1.691545D-08
 GradGradGradGradGradGradGradGradGradGradGradGradGradGradGradGradGradGrad

                          Input orientation:                          
 ---------------------------------------------------------------------
 Center     Atomic      Atomic             Coordinates (Angstroms)
 Number     Number       Type             X           Y           Z
 ---------------------------------------------------------------------
      1          6           0        1.943312   -1.074074    0.453439
      2          1           0        1.367330   -1.139626    1.376320
      3          1           0        1.894801   -2.038594   -0.048631
      4          6           0        1.440246    0.038543   -0.425138
      5          1           0        1.895883    0.058915   -1.413540
      6          6           0       -2.092096   -0.177444    0.880915
      7          1           0       -1.225480   -0.373004    1.514381
      8          1           0       -2.737251    0.559763    1.354650
      9          1           0       -2.639291   -1.103038    0.710235
     10          8           0       -1.698804    0.406001   -0.352486
     11          8           0       -0.934341   -0.546081   -1.054084
     12          1           0        0.190896   -0.292239   -0.768822
     13          1           0        2.987329   -0.899477    0.733148
     14          6           0        1.296236    1.396053    0.203798
     15          1           0        0.801389    2.098148   -0.463829
     16          1           0        0.721513    1.345271    1.128376
     17          1           0        2.280256    1.806651    0.453687
 ---------------------------------------------------------------------
                    Distance matrix (angstroms):
                    1          2          3          4          5
     1  C    0.000000
     2  H    1.089845   0.000000
     3  H    1.088452   1.765462   0.000000
     4  C    1.504290   2.153753   2.159370   0.000000
     5  H    2.184381   3.082075   2.502503   1.088557   0.000000
     6  C    4.155864   3.624756   4.497031   3.772250   4.606991
     7  H    3.414431   2.707293   3.866956   3.322228   4.301416
     8  H    5.038778   4.442520   5.493320   4.570646   5.420300
     9  H    4.589884   4.061776   4.691389   4.385761   5.140851
    10  O    4.013122   3.844335   4.356876   3.161319   3.764051
    11  O    3.291244   3.399537   3.352995   2.525079   2.916401
    12  H    2.275115   2.589150   2.543958   1.337315   1.856327
    13  H    1.094848   1.759472   1.761359   2.148249   2.591917
    14  C    2.565649   2.794554   3.495541   1.503041   2.182498
    15  H    3.494047   3.766912   4.298905   2.156759   2.501668
    16  H    2.793128   2.579394   3.769947   2.153491   3.081427
    17  H    2.900363   3.219509   3.897026   2.145730   2.586283
                    6          7          8          9         10
     6  C    0.000000
     7  H    1.091122   0.000000
     8  H    1.088174   1.783542   0.000000
     9  H    1.088705   1.782824   1.785994   0.000000
    10  O    1.419987   2.077517   2.004078   2.071495   0.000000
    11  O    2.284844   2.590701   3.205523   2.515925   1.408228
    12  H    2.819019   2.688059   3.716058   3.294687   2.057144
    13  H    5.132615   4.316858   5.940242   5.630348   4.984247
    14  C    3.796732   3.347572   4.277015   4.689382   3.203111
    15  H    3.919045   3.758738   4.265615   4.843996   3.021047
    16  H    3.208784   2.625310   3.554051   4.179003   2.988832
    17  H    4.820438   4.262177   5.248033   5.721368   4.294724
                   11         12         13         14         15
    11  O    0.000000
    12  H    1.188263   0.000000
    13  H    4.324186   3.231825   0.000000
    14  C    3.213973   2.240111   2.899908   0.000000
    15  H    3.217625   2.485895   3.898313   1.087905   0.000000
    16  H    3.328993   2.561709   3.213880   1.089830   1.763043
    17  H    4.259385   3.203950   2.810903   1.095140   1.764611
                   16         17
    16  H    0.000000
    17  H    1.760044   0.000000
 Symmetry turned off by external request.
 Stoichiometry    C4H11O2(2)
 Framework group  C1[X(C4H11O2)]
 Deg. of freedom    45
 Full point group                 C1      NOp   1
 Rotational constants (GHZ):           4.6801203           1.7506608           1.6505204
 Standard basis: CC-pVTZ (5D, 7F)
   334 basis functions,   499 primitive gaussians,   375 cartesian basis functions
    26 alpha electrons       25 beta electrons
       nuclear repulsion energy       256.8792856773 Hartrees.
 NAtoms=   17 NActive=   17 NUniq=   17 SFac= 1.00D+00 NAtFMM=   60 NAOKFM=F Big=F
 Integral buffers will be    131072 words long.
 Raffenetti 2 integral format.
 Two-electron integral symmetry is turned off.
 Nuclear repulsion after empirical dispersion term =      256.8709925326 Hartrees.
 One-electron integrals computed using PRISM.
 NBasis=   334 RedAO= T EigKep=  7.99D-04  NBF=   334
 NBsUse=   334 1.00D-06 EigRej= -1.00D+00 NBFU=   334
 Initial guess from the checkpoint file:  "/localscratch/350156/Gau-4008.chk"
 B after Tr=    -0.000059    0.000022    0.000056
         Rot=    1.000000   -0.000007    0.000008   -0.000008 Ang=  -0.00 deg.
 Initial guess <Sx>= 0.0000 <Sy>= 0.0000 <Sz>= 0.5000 <S**2>= 0.7684 S= 0.5092
 Requested convergence on RMS density matrix=1.00D-08 within 500 cycles.
 Requested convergence on MAX density matrix=1.00D-06.
 Requested convergence on             energy=1.00D-06.
 No special actions if energy rises.
 SCF Done:  E(UB2PLYPD3) =  -308.795173852     A.U. after    7 cycles
            NFock=  7  Conv=0.74D-08     -V/T= 2.0044
 <Sx>= 0.0000 <Sy>= 0.0000 <Sz>= 0.5000 <S**2>= 0.7684 S= 0.5092
 <L.S>=  0.00000000000    
 Annihilation of the first spin contaminant:
 S**2 before annihilation     0.7684,   after     0.7502
 DoSCS=T DFT=T ScalE2(SS,OS)=  0.270000  0.270000
 ExpMin= 1.03D-01 ExpMax= 1.53D+04 ExpMxC= 5.22D+02 IAcc=3 IRadAn=         5 AccDes= 0.00D+00
 HarFok:  IExCor=  205 AccDes= 0.00D+00 IRadAn=         5 IDoV=-2 UseB2=F ITyADJ=14
 ICtDFT= 12500011 ScaDFX=  1.000000  1.000000  1.000000  1.000000
 Range of M.O.s used for correlation:     7   334
 NBasis=   334 NAE=    26 NBE=    25 NFC=     6 NFV=     0
 NROrb=    328 NOA=    20 NOB=    19 NVA=   308 NVB=   309

 **** Warning!!: The largest alpha MO coefficient is  0.12117356D+02


 **** Warning!!: The largest beta MO coefficient is  0.12121889D+02

 DoSCS=T DFT=T ScalE2(SS,OS)=  0.270000  0.270000
 Disk-based method using ON**2 memory for 20 occupieds at a time.
 Estimated scratch disk usage=  1896323602 words.
 Actual    scratch disk usage=  1738419730 words.
 JobTyp=2 Pass  1:  I=   7 to  26 NPSUse= 40 ParTrn=T ParDer=T DoDerP=T.
 (rs|ai) integrals will be sorted in core.
 Actual    scratch disk usage=  1738419730 words.
 JobTyp=3 Pass  1:  I=   7 to  25 NPSUse= 40 ParTrn=T ParDer=T DoDerP=T.
 (rs|ai) integrals will be sorted in core.
 Spin components of T(2) and E(2):
     alpha-alpha T2 =       0.6422367866D-01 E2=     -0.4723704997D-01
     alpha-beta  T2 =       0.3978386457D+00 E2=     -0.2996682826D+00
     beta-beta   T2 =       0.6986296165D-01 E2=     -0.4614606772D-01
 (S**2,0)=  0.76845D+00           (S**2,1)=  0.74271D+00
 Scaling Projection term by:   0.270000
 E(PUHF)=      -0.30880139227D+03        E(PMP2)=      -0.30918873863D+03
 E2(B2PLYPD3) =    -0.3930514003D+00 E(B2PLYPD3) =    -0.30918822525224D+03
          IDoAtm=11111111111111111
          Differentiating once with respect to electric field.
                with respect to dipole field.
          Differentiating once with respect to nuclear coordinates.
 Keep R1 and R2 ints in memory in canonical form, NReq=3176238830.
          There are     1 degrees of freedom in the 1st order CPHF.  IDoFFX=0 NUNeed=     1.
 LinEq1:  Iter=  0 NonCon=     1 RMS=8.71D-04 Max=6.03D-02 NDo=     1
 AX will form     1 AO Fock derivatives at one time.
 LinEq1:  Iter=  1 NonCon=     1 RMS=2.86D-04 Max=9.83D-03 NDo=     1
 LinEq1:  Iter=  2 NonCon=     1 RMS=1.58D-04 Max=7.79D-03 NDo=     1
 LinEq1:  Iter=  3 NonCon=     1 RMS=6.58D-05 Max=1.04D-03 NDo=     1
 LinEq1:  Iter=  4 NonCon=     1 RMS=3.66D-05 Max=7.33D-04 NDo=     1
 LinEq1:  Iter=  5 NonCon=     1 RMS=2.65D-05 Max=7.68D-04 NDo=     1
 LinEq1:  Iter=  6 NonCon=     1 RMS=1.71D-05 Max=5.26D-04 NDo=     1
 LinEq1:  Iter=  7 NonCon=     1 RMS=5.54D-06 Max=1.00D-04 NDo=     1
 LinEq1:  Iter=  8 NonCon=     1 RMS=2.18D-06 Max=3.43D-05 NDo=     1
 LinEq1:  Iter=  9 NonCon=     1 RMS=9.78D-07 Max=1.80D-05 NDo=     1
 LinEq1:  Iter= 10 NonCon=     1 RMS=3.78D-07 Max=7.72D-06 NDo=     1
 LinEq1:  Iter= 11 NonCon=     1 RMS=1.36D-07 Max=2.58D-06 NDo=     1
 LinEq1:  Iter= 12 NonCon=     1 RMS=4.45D-08 Max=1.20D-06 NDo=     1
 LinEq1:  Iter= 13 NonCon=     1 RMS=2.02D-08 Max=5.37D-07 NDo=     1
 LinEq1:  Iter= 14 NonCon=     1 RMS=7.59D-09 Max=2.97D-07 NDo=     1
 LinEq1:  Iter= 15 NonCon=     1 RMS=2.16D-09 Max=1.02D-07 NDo=     1
 LinEq1:  Iter= 16 NonCon=     1 RMS=7.26D-10 Max=3.91D-08 NDo=     1
 LinEq1:  Iter= 17 NonCon=     1 RMS=2.40D-10 Max=1.10D-08 NDo=     1
 LinEq1:  Iter= 18 NonCon=     1 RMS=8.86D-11 Max=2.60D-09 NDo=     1
 LinEq1:  Iter= 19 NonCon=     0 RMS=3.80D-11 Max=8.22D-10 NDo=     1
 Linear equations converged to 1.000D-10 1.000D-09 after    19 iterations.
 End of Minotr F.D. properties file   721 does not exist.
 End of Minotr F.D. properties file   722 does not exist.
 End of Minotr F.D. properties file   788 does not exist.
 Calling FoFJK, ICntrl=  10002127 FMM=F ISym2X=0 I1Cent= 0 IOpClX= 1 NMat=1 NMatS=1 NMatT=0.
 -------------------------------------------------------------------
 Center     Atomic                   Forces (Hartrees/Bohr)
 Number     Number              X              Y              Z
 -------------------------------------------------------------------
      1        6          -0.000001287    0.000001901    0.000003209
      2        1          -0.000000022    0.000000135    0.000000180
      3        1           0.000000018   -0.000000025    0.000000256
      4        6           0.000001451   -0.000002527   -0.000003397
      5        1           0.000000026   -0.000000169    0.000000044
      6        6           0.000000073    0.000000054   -0.000000026
      7        1          -0.000000002    0.000000122    0.000000052
      8        1          -0.000000019    0.000000110   -0.000000090
      9        1          -0.000000001    0.000000025    0.000000115
     10        8          -0.000000371   -0.000002615    0.000002984
     11        8           0.000000018    0.000002857   -0.000002735
     12        1           0.000000132   -0.000000055   -0.000000000
     13        1          -0.000000008    0.000000084    0.000000125
     14        6           0.000000075    0.000000018   -0.000000159
     15        1          -0.000000020   -0.000000074   -0.000000248
     16        1          -0.000000039    0.000000104   -0.000000124
     17        1          -0.000000024    0.000000054   -0.000000186
 -------------------------------------------------------------------
 Cartesian Forces:  Max     0.000003397 RMS     0.000001151

 GradGradGradGradGradGradGradGradGradGradGradGradGradGradGradGradGradGrad
 Berny optimization.
 FormGI is forming the generalized inverse of G from B-inverse, IUseBI=4.
 Internal  Forces:  Max     0.000010202 RMS     0.000001249
 Search for a saddle point.
 Step number   2 out of a maximum of  102 on scan point     1 out of    37
 All quantities printed in internal units (Hartrees-Bohrs-Radians)
 Swapping is turned off.
 Update second derivatives using D2CorX and points    1    2
 ITU=  0  0
     Eigenvalues ---   -0.07209   0.00138   0.00179   0.00607   0.01710
     Eigenvalues ---    0.02326   0.02524   0.03467   0.04287   0.04437
     Eigenvalues ---    0.04450   0.04504   0.04899   0.06071   0.08506
     Eigenvalues ---    0.08534   0.09778   0.11940   0.12172   0.12393
     Eigenvalues ---    0.13039   0.13851   0.14371   0.15366   0.16424
     Eigenvalues ---    0.16765   0.18097   0.18587   0.19511   0.25428
     Eigenvalues ---    0.30109   0.31362   0.31865   0.32766   0.32952
     Eigenvalues ---    0.33522   0.33884   0.34095   0.34246   0.34420
     Eigenvalues ---    0.34754   0.34952   0.35529   0.404711000.00000
     Eigenvalues --- 1000.000001000.000001000.000001000.000001000.00000
     Eigenvalues --- 1000.000001000.000001000.000001000.000001000.00000
     Eigenvalues --- 1000.000001000.000001000.000001000.000001000.00000
     Eigenvalues --- 1000.000001000.000001000.000001000.000001000.00000
     Eigenvalues --- 1000.000001000.00000
 Eigenvectors required to have negative eigenvalues:
                          R13       R6        R12       A20       D4
   1                    0.69649  -0.66135  -0.15352   0.07926  -0.05960
                          D14       D3        D12       D7        D16
   1                    0.05891   0.05372  -0.05270  -0.05135   0.05074
 RFO step:  Lambda0=1.751446210D-13 Lambda= 0.00000000D+00.
 Linear search not attempted -- option 19 set.
 Iteration  1 RMS(Cart)=  0.00000886 RMS(Int)=  0.00000000
[...]
    16  H   -0.000723   0.405441  -0.025312   0.594797  -0.036078
    17  H    0.003578   0.399338  -0.029584  -0.036078   0.603126
          Atomic-Atomic Spin Densities.
               1          2          3          4          5          6
     1  C   -0.021793   0.003798   0.003907  -0.027207   0.004105  -0.000177
     2  H    0.003798   0.008190   0.001050  -0.004844   0.000275  -0.000178
     3  H    0.003907   0.001050   0.004999  -0.004165   0.000802  -0.000020
     4  C   -0.027207  -0.004844  -0.004165   0.670795   0.003264   0.001261
     5  H    0.004105   0.000275   0.000802   0.003264  -0.019161  -0.000047
     6  C   -0.000177  -0.000178  -0.000020   0.001261  -0.000047  -0.005340
     7  H    0.000987   0.001104   0.000135  -0.005016   0.000161   0.002032
     8  H   -0.000017  -0.000011  -0.000001   0.000119  -0.000003   0.000649
     9  H   -0.000168  -0.000131  -0.000032   0.001083  -0.000029  -0.001776
    10  O   -0.000693  -0.000256  -0.000046   0.011840  -0.000414   0.002006
    11  O    0.006295   0.001193   0.000787  -0.088685   0.003509  -0.002949
    12  H   -0.005118  -0.000654  -0.000488   0.075651   0.001642   0.001086
    13  H    0.004115  -0.005157  -0.003336  -0.012247  -0.002219   0.000038
    14  C    0.004507   0.000870   0.000110  -0.019357   0.002674  -0.000471
    15  H    0.000276   0.000098   0.000025  -0.003807   0.000964  -0.000099
    16  H    0.001009   0.000636   0.000066  -0.004091   0.000205  -0.000495
    17  H   -0.001001  -0.000904  -0.000201  -0.015820  -0.002721   0.000094
               7          8          9         10         11         12
     1  C    0.000987  -0.000017  -0.000168  -0.000693   0.006295  -0.005118
     2  H    0.001104  -0.000011  -0.000131  -0.000256   0.001193  -0.000654
     3  H    0.000135  -0.000001  -0.000032  -0.000046   0.000787  -0.000488
     4  C   -0.005016   0.000119   0.001083   0.011840  -0.088685   0.075651
     5  H    0.000161  -0.000003  -0.000029  -0.000414   0.003509   0.001642
     6  C    0.002032   0.000649  -0.001776   0.002006  -0.002949   0.001086
     7  H    0.004388  -0.000810  -0.001610  -0.001561   0.004304  -0.003667
     8  H   -0.000810  -0.001918   0.000938   0.000162  -0.000210   0.000115
     9  H   -0.001610   0.000938   0.002960  -0.000439  -0.000225   0.001338
    10  O   -0.001561   0.000162  -0.000439   0.051305  -0.042623   0.010472
    11  O    0.004304  -0.000210  -0.000225  -0.042623   0.606885  -0.060875
    12  H   -0.003667   0.000115   0.001338   0.010472  -0.060875  -0.088550
    13  H   -0.000239   0.000001   0.000017   0.000062  -0.000601   0.000672
    14  C    0.000948  -0.000044  -0.000123  -0.002056   0.005970  -0.000982
    15  H    0.000206  -0.000006  -0.000027  -0.000925   0.001301  -0.000837
    16  H    0.001199  -0.000047  -0.000107  -0.001250   0.001267  -0.000431
    17  H   -0.000274   0.000007   0.000015   0.000331  -0.000843   0.001083
              13         14         15         16         17
     1  C    0.004115   0.004507   0.000276   0.001009  -0.001001
     2  H   -0.005157   0.000870   0.000098   0.000636  -0.000904
     3  H   -0.003336   0.000110   0.000025   0.000066  -0.000201
     4  C   -0.012247  -0.019357  -0.003807  -0.004091  -0.015820
     5  H   -0.002219   0.002674   0.000964   0.000205  -0.002721
     6  C    0.000038  -0.000471  -0.000099  -0.000495   0.000094
     7  H   -0.000239   0.000948   0.000206   0.001199  -0.000274
     8  H    0.000001  -0.000044  -0.000006  -0.000047   0.000007
     9  H    0.000017  -0.000123  -0.000027  -0.000107   0.000015
    10  O    0.000062  -0.002056  -0.000925  -0.001250   0.000331
    11  O   -0.000601   0.005970   0.001301   0.001267  -0.000843
    12  H    0.000672  -0.000982  -0.000837  -0.000431   0.001083
    13  H    0.051855  -0.000491  -0.000194  -0.000670   0.003853
    14  C   -0.000491  -0.031438   0.003829   0.003402   0.003784
    15  H   -0.000194   0.003829   0.007215   0.001371  -0.004961
    16  H   -0.000670   0.003402   0.001371   0.009243  -0.005897
    17  H    0.003853   0.003784  -0.004961  -0.005897   0.064373
 Mulliken charges and spin densities:
               1          2
     1  C   -0.290349  -0.027175
     2  H    0.098006   0.005077
     3  H    0.113396   0.003595
     4  C   -0.160148   0.578772
     5  H    0.120842  -0.006995
     6  C   -0.061535  -0.004388
     7  H    0.063361   0.002289
     8  H    0.097951  -0.001076
     9  H    0.093739   0.001684
    10  O   -0.190713   0.025915
    11  O   -0.228896   0.434500
    12  H    0.213662  -0.069543
    13  H    0.100330   0.035458
    14  C   -0.291944  -0.028870
    15  H    0.122487   0.004429
    16  H    0.097194   0.005411
    17  H    0.102616   0.040918
 Sum of Mulliken charges =  -0.00000   1.00000
 Mulliken charges and spin densities with hydrogens summed into heavy atoms:
               1          2
     1  C    0.021384   0.016954
     4  C   -0.039307   0.571778
     6  C    0.193517  -0.001492
    10  O   -0.190713   0.025915
    11  O   -0.015234   0.364957
    14  C    0.030353   0.021888
 Electronic spatial extent (au):  <R**2>=            866.0583
 Charge=             -0.0000 electrons
 Dipole moment (field-independent basis, Debye):
    X=              1.6878    Y=             -1.8743    Z=             -0.3986  Tot=              2.5535
 Quadrupole moment (field-independent basis, Debye-Ang):
   XX=            -37.7166   YY=            -39.7974   ZZ=            -40.1075
   XY=              5.2562   XZ=              0.5803   YZ=             -1.2419
 Traceless Quadrupole moment (field-independent basis, Debye-Ang):
   XX=              1.4906   YY=             -0.5902   ZZ=             -0.9003
   XY=              5.2562   XZ=              0.5803   YZ=             -1.2419
 Octapole moment (field-independent basis, Debye-Ang**2):
  XXX=            -10.2802  YYY=            -24.1214  ZZZ=            -37.0687  XYY=             -0.8746
  XXY=            -13.9468  XXZ=            -12.3221  XZZ=             -1.6919  YZZ=             -7.9904
  YYZ=            -11.4173  XYZ=              2.8229
 Hexadecapole moment (field-independent basis, Debye-Ang**3):
 XXXX=           -655.3005 YYYY=           -184.2471 ZZZZ=           -272.3784 XXXY=            -19.2870
 XXXZ=             44.6392 YYYX=            -25.2237 YYYZ=             -2.9544 ZZZX=             43.3689
 ZZZY=             -4.6060 XXYY=           -144.9040 XXZZ=           -160.1046 YYZZ=            -74.2359
 XXYZ=             -6.6802 YYXZ=             12.5667 ZZXY=             -5.2799
 N-N= 2.568680615440D+02 E-N=-1.236507797610D+03  KE= 3.074567196279D+02
                          Isotropic Fermi Contact Couplings
        Atom                 a.u.       MegaHertz       Gauss      10(-4) cm-1
     1  C(13)             -0.01059     -11.90978      -4.24971      -3.97267
     2  H(1)               0.00258      11.51060       4.10727       3.83952
     3  H(1)               0.00271      12.12869       4.32782       4.04570
     4  C(13)              0.09233     103.79116      37.03527      34.62100
     5  H(1)              -0.00282     -12.58289      -4.48989      -4.19720
     6  C(13)             -0.00369      -4.14412      -1.47873      -1.38233
     7  H(1)               0.00188       8.41694       3.00338       2.80759
     8  H(1)              -0.00015      -0.65461      -0.23358      -0.21836
     9  H(1)               0.00043       1.93663       0.69104       0.64599
    10  O(17)              0.01516      -9.18899      -3.27886      -3.06512
    11  O(17)              0.05447     -33.01906     -11.78202     -11.01397
    12  H(1)              -0.01899     -84.88977     -30.29078     -28.31618
    13  H(1)               0.01689      75.49369      26.93802      25.18198
    14  C(13)             -0.00875      -9.83384      -3.50896      -3.28022
    15  H(1)               0.00322      14.38853       5.13419       4.79950
    16  H(1)               0.00335      14.96578       5.34016       4.99205
    17  H(1)               0.01922      85.92798      30.66124      28.66249
 --------------------------------------------------------
       Center         ----  Spin Dipole Couplings  ----
                      3XX-RR        3YY-RR        3ZZ-RR
 --------------------------------------------------------
     1   Atom        0.003878     -0.004343      0.000465
     2   Atom       -0.004438      0.006644     -0.002206
     3   Atom       -0.004182     -0.007333      0.011515
     4   Atom        0.690561     -0.341803     -0.348758
     5   Atom        0.004153      0.038556     -0.042709
     6   Atom       -0.002214      0.007109     -0.004895
     7   Atom       -0.002504      0.008105     -0.005601
     8   Atom       -0.000335      0.003083     -0.002748
     9   Atom        0.001476      0.002695     -0.004171
    10   Atom        0.404869     -0.164892     -0.239976
    11   Atom        1.545482     -0.701914     -0.843568
    12   Atom        0.233132     -0.113244     -0.119888
    13   Atom        0.004331     -0.003628     -0.000703
    14   Atom        0.004777     -0.010155      0.005378
    15   Atom       -0.004384     -0.007972      0.012356
    16   Atom       -0.004542      0.004876     -0.000334
    17   Atom        0.003800     -0.005009      0.001209
 --------------------------------------------------------
                        XY            XZ            YZ
 --------------------------------------------------------
     1   Atom       -0.014229     -0.014643      0.013948
     2   Atom       -0.002188     -0.000904      0.008633
     3   Atom       -0.000632     -0.003606      0.002998
     4   Atom       -0.102295      0.071115     -0.007419
     5   Atom        0.015864      0.001529     -0.004863
     6   Atom        0.006691     -0.001722     -0.000745
     7   Atom        0.002921     -0.000080      0.000362
     8   Atom        0.003755     -0.001430     -0.002441
     9   Atom        0.006593      0.001323      0.001715
    10   Atom       -0.125994     -0.009325      0.029399
    11   Atom       -0.747598      0.438047     -0.133705
    12   Atom       -0.048787      0.002096     -0.002346
    13   Atom       -0.003826     -0.003961      0.004568
    14   Atom       -0.009588      0.016283     -0.012070
    15   Atom       -0.000036      0.002033      0.000170
    16   Atom       -0.001322      0.000509     -0.009631
    17   Atom       -0.002881      0.004821     -0.004088
 --------------------------------------------------------


 ---------------------------------------------------------------------------------
              Anisotropic Spin Dipole Couplings in Principal Axis System
 ---------------------------------------------------------------------------------

       Atom             a.u.   MegaHertz   Gauss  10(-4) cm-1        Axes

              Baa    -0.0165    -2.208    -0.788    -0.736  0.2366  0.8402 -0.4880
     1 C(13)  Bbb    -0.0124    -1.664    -0.594    -0.555  0.7375  0.1717  0.6532
              Bcc     0.0289     3.872     1.382     1.292  0.6325 -0.5144 -0.5790
 
              Baa    -0.0075    -4.018    -1.434    -1.340 -0.1303 -0.5303  0.8377
     2 H(1)   Bbb    -0.0047    -2.517    -0.898    -0.839  0.9817  0.0493  0.1839
              Bcc     0.0122     6.534     2.332     2.180 -0.1388  0.8464  0.5142
 
              Baa    -0.0078    -4.162    -1.485    -1.388  0.0243  0.9886 -0.1489
     3 H(1)   Bbb    -0.0050    -2.652    -0.946    -0.885  0.9772  0.0079  0.2123
              Bcc     0.0128     6.814     2.431     2.273 -0.2111  0.1507  0.9658
 
              Baa    -0.3537   -47.464   -16.937   -15.832 -0.0433  0.2329  0.9715
     4 C(13)  Bbb    -0.3517   -47.200   -16.842   -15.744  0.1105  0.9676 -0.2270
              Bcc     0.7054    94.665    33.779    31.577  0.9929 -0.0975  0.0677
 
              Baa    -0.0431   -23.016    -8.213    -7.677 -0.0557  0.0701  0.9960
     5 H(1)   Bbb    -0.0018    -0.959    -0.342    -0.320  0.9310 -0.3567  0.0772
              Bcc     0.0449    23.975     8.555     7.997  0.3607  0.9316 -0.0454
 
              Baa    -0.0066    -0.885    -0.316    -0.295  0.7318 -0.3248  0.5992
     6 C(13)  Bbb    -0.0041    -0.556    -0.198    -0.186 -0.4967  0.3480  0.7951
              Bcc     0.0107     1.441     0.514     0.481  0.4667  0.8795 -0.0933
 
              Baa    -0.0056    -2.999    -1.070    -1.000  0.0628 -0.0397  0.9972
     7 H(1)   Bbb    -0.0032    -1.730    -0.617    -0.577  0.9665 -0.2466 -0.0707
              Bcc     0.0089     4.729     1.688     1.578  0.2487  0.9683  0.0228
 
              Baa    -0.0036    -1.941    -0.693    -0.647  0.0519  0.3151  0.9476
     8 H(1)   Bbb    -0.0027    -1.461    -0.521    -0.487  0.8564 -0.5022  0.1201
              Bcc     0.0064     3.402     1.214     1.135  0.5137  0.8053 -0.2960
 
              Baa    -0.0047    -2.510    -0.896    -0.837  0.4576 -0.5665  0.6853
     9 H(1)   Bbb    -0.0044    -2.323    -0.829    -0.775 -0.5920  0.3809  0.7102
              Bcc     0.0091     4.834     1.725     1.612  0.6634  0.7307  0.1611
 
              Baa    -0.2522    18.248     6.511     6.087 -0.0637 -0.3999  0.9143
    10 O(17)  Bbb    -0.1796    12.999     4.638     4.336  0.1989  0.8927  0.4043
              Bcc     0.4318   -31.247   -11.150   -10.423  0.9780 -0.2076 -0.0227
 
              Baa    -0.9281    67.157    23.963    22.401  0.2554  0.9501  0.1790
    11 O(17)  Bbb    -0.9212    66.660    23.786    22.235 -0.2104 -0.1261  0.9694
              Bcc     1.8493  -133.817   -47.749   -44.637  0.9437 -0.2853  0.1677
 
              Baa    -0.1220   -65.084   -23.223   -21.710  0.0931  0.7079  0.7001
    12 H(1)   Bbb    -0.1179   -62.910   -22.448   -20.984 -0.1006 -0.6929  0.7140
              Bcc     0.2399   127.993    45.671    42.694  0.9906 -0.1369  0.0067
 
              Baa    -0.0070    -3.751    -1.339    -1.251  0.0907  0.8336 -0.5449
    13 H(1)   Bbb    -0.0020    -1.063    -0.379    -0.355  0.6434  0.3686  0.6710
              Bcc     0.0090     4.814     1.718     1.606  0.7602 -0.4115 -0.5029
 
              Baa    -0.0168    -2.252    -0.804    -0.751  0.0672  0.8961  0.4387
    14 C(13)  Bbb    -0.0108    -1.451    -0.518    -0.484  0.7674  0.2346 -0.5967
              Bcc     0.0276     3.704     1.322     1.235  0.6377 -0.3767  0.6719
 
              Baa    -0.0080    -4.255    -1.518    -1.419  0.0158  0.9998 -0.0099
    15 H(1)   Bbb    -0.0046    -2.468    -0.881    -0.823  0.9928 -0.0168 -0.1187
              Bcc     0.0126     6.723     2.399     2.243  0.1189  0.0080  0.9929
 
              Baa    -0.0078    -4.139    -1.477    -1.381  0.1269  0.6097  0.7824
    16 H(1)   Bbb    -0.0046    -2.455    -0.876    -0.819  0.9887 -0.0140 -0.1495
              Bcc     0.0124     6.594     2.353     2.199 -0.0802  0.7925 -0.6046
 
              Baa    -0.0071    -3.767    -1.344    -1.257  0.0561  0.9076  0.4160
    17 H(1)   Bbb    -0.0021    -1.104    -0.394    -0.368  0.6866  0.2674 -0.6761
              Bcc     0.0091     4.872     1.738     1.625  0.7249 -0.3235  0.6082
 

 ---------------------------------------------------------------------------------

 1\1\GINC-N190\Scan\UB2PLYPD3-FC\CC-pVTZ\C4H11O2(2)\ROOT\19-Jun-2019\0\
 \# opt=(calcfc,ts,noeigentest,maxcyc=500,modredundant) uB2PLYPD3/cc-pv
 tz scf=maxcyc=500 nosymm\\Title Card Required\\0,2\C,1.7032002127,-0.0
 297095687,-1.1349725944\H,1.2216826308,-1.0068747318,-1.1024850054\H,1
 .4103948415,0.4647553887,-2.0593571476\C,1.3498196867,0.7924970351,0.0
 741487068\H,1.6976730335,1.8226897693,0.0226754224\C,-2.0028074897,-0.
 8708207607,0.5491195739\H,-1.1347627818,-1.4116972659,0.1690044432\H,-
 2.4333937463,-1.4084702931,1.3915274938\H,-2.7412212556,-0.7573709826,
 -0.2428116572\O,-1.6254274647,0.3965158227,1.0666328436\O,-1.145129470
 4,1.1730313454,-0.0054787685\H,0.0311246705,1.0052554078,0.0097245128\
 H,2.7836817778,-0.2007231289,-1.1798140294\C,1.5484629888,0.1523546534
 ,1.4194765738\H,1.1411732936,0.7654020729,2.2206140024\H,1.0720298068,
 -0.8267009761,1.4664669748\H,2.6154282658,0.0056332126,1.617948655\\Ve
 rsion=ES64L-G16RevB.01\HF=-308.7951739,-308.795154,-308.795098,-308.79
 50393,-308.7949982,-308.7949633,-308.7949223,-308.7948721,-308.7948247
 ,-308.7947946,-308.7947969,-308.7948469,-308.7949289,-308.7950129,-308
 .795087,-308.7951509,-308.7952168,-308.7952938,-308.7953696,-308.79543
 48,-308.7954661,-308.7954729,-308.7954618,-308.7954393,-308.7954084,-3
 08.79536,-308.7953065,-308.7952757,-308.795269,-308.7952712,-308.79526
 58,-308.7952382,-308.7951973,-308.795159,-308.7951428,-308.7951559,-30
 8.795174\MP2=-309.1882253,-309.1881861,-309.188105,-309.1880158,-309.1
 879115,-309.1877839,-309.1876398,-309.1875023,-309.1873948,-309.187329
 7,-309.1873169,-309.187363,-309.1874474,-309.1875262,-309.187588,-309.
 1876453,-309.1877219,-309.1878364,-309.1879817,-309.1881348,-309.18825
 26,-309.1883221,-309.1883622,-309.1883967,-309.1884192,-309.1884155,-3
 09.1884045,-309.1883941,-309.1883766,-309.1883454,-309.1883047,-309.18
 82575,-309.1882054,-309.1881613,-309.1881479,-309.1881911,-309.1882252
 \PUHF=-308.8013923,-308.8013765,-308.8013258,-308.8012746,-308.8012438
 ,-308.8012196,-308.8011859,-308.8011385,-308.8010909,-308.8010595,-308
 .8010599,-308.8011069,-308.8011853,-308.8012668,-308.8013381,-308.8013
 99,-308.801462,-308.801536,-308.8016046,-308.8016625,-308.8016821,-308
 .8016791,-308.8016629,-308.8016408,-308.8016139,-308.8015716,-308.8015
 251,-308.8015037,-308.8015092,-308.8015228,-308.8015242,-308.8014956,-
 308.8014459,-308.8013966,-308.8013686,-308.8013746,-308.8013923\PMP2-0
 =-309.1887386,-309.1886998,-309.1886194,-309.1885308,-309.1884272,-309
 .1883005,-309.1881573,-309.1880204,-309.1879133,-309.1878484,-309.1878
 354,-309.1878808,-309.1879641,-309.188042,-309.1881032,-309.1881598,-3
 09.1882358,-309.1883496,-309.1884937,-309.1886459,-309.1887625,-309.18
 88313,-309.1888713,-309.1889066,-309.1889302,-309.1889279,-309.188918,
 -309.1889087,-309.1888923,-309.188862,-309.1888219,-309.1887747,-309.1
 88722,-309.1886769,-309.1886625,-309.1887048,-309.1887386\S2=0.768448,
 0.768457,0.768471,0.768483,0.768495,0.768509,0.768527,0.768548,0.76857
 1,0.768591,0.768601,0.768595,0.76857,0.768543,0.768516,0.768489,0.7684
 61,0.768431,0.768394,0.768371,0.768343,0.768331,0.768336,0.76836,0.768
 396,0.768438,0.768472,0.768494,0.768509,0.768517,0.768521,0.76852,0.76
 851,0.768497,0.768478,0.768458,0.768447\S2-1=0.742707,0.742705,0.74270
 2,0.742697,0.74269,0.742685,0.742684,0.742685,0.742686,0.742684,0.7426
 79,0.742672,0.742665,0.74266,0.742661,0.742664,0.742666,0.742666,0.742
 669,0.742671,0.742677,0.742683,0.742689,0.742694,0.742698,0.742701,0.7
 42701,0.742698,0.742693,0.74269,0.742689,0.742692,0.742697,0.742703,0.
 742708,0.742709,0.742707\S2A=0.750153,0.750153,0.750153,0.750153,0.750
 153,0.750153,0.750153,0.750153,0.750153,0.750153,0.750153,0.750153,0.7
 50153,0.750153,0.750153,0.750152,0.750152,0.750151,0.750151,0.750151,0
 .750151,0.750151,0.750151,0.750152,0.750152,0.750153,0.750153,0.750153
 ,0.750153,0.750153,0.750152,0.750152,0.750152,0.750153,0.750153,0.7501
 53,0.750153\RMSD=7.379e-09,8.449e-09,4.620e-09,3.539e-09,8.406e-09,6.9
 49e-09,8.823e-09,8.757e-09,8.711e-09,9.719e-09,8.058e-09,7.720e-09,6.0
 08e-09,9.254e-09,4.853e-09,6.948e-09,4.284e-09,6.297e-09,5.257e-09,5.3
 00e-09,8.101e-09,2.011e-09,9.705e-09,8.864e-09,9.072e-09,4.791e-09,9.3
 77e-09,9.415e-09,9.007e-09,7.122e-09,6.542e-09,6.020e-09,9.954e-09,8.4
 46e-09,6.511e-09,9.054e-09,5.924e-09\PG=C01 [X(C4H11O2)]\\@


 There was a great rattling of the words for the fewness of ideas.
                   -- Charles Baxter in Gryphon
 Job cpu time:      20 days  6 hours 57 minutes 16.0 seconds.
 Elapsed time:       0 days 17 hours 21 minutes 42.1 seconds.
 File lengths (MBytes):  RWF=  75941 Int=      0 D2E=      0 Chk=     20 Scr=      1
 Normal termination of Gaussian 16 at Wed Jun 19 06:00:46 2019.
