 Entering Gaussian System, Link 0=g16
 Initial command:
 /ichec/packages/gaussian/16b01/l1.exe "/localscratch/350167/Gau-56260.inp" -scrdir="/localscratch/350167/"
 Entering Link 1 = /ichec/packages/gaussian/16b01/l1.exe PID=     56555.
  
 Copyright (c) 1988-2017, Gaussian, Inc.  All Rights Reserved.
  
 This is part of the Gaussian(R) 16 program.  It is based on
 the Gaussian(R) 09 system (copyright 2009, Gaussian, Inc.),
 the Gaussian(R) 03 system (copyright 2003, Gaussian, Inc.),
 the Gaussian(R) 98 system (copyright 1998, Gaussian, Inc.),
 the Gaussian(R) 94 system (copyright 1995, Gaussian, Inc.),
 the Gaussian 92(TM) system (copyright 1992, Gaussian, Inc.),
 the Gaussian 90(TM) system (copyright 1990, Gaussian, Inc.),
 the Gaussian 88(TM) system (copyright 1988, Gaussian, Inc.),
 the Gaussian 86(TM) system (copyright 1986, Carnegie Mellon
 University), and the Gaussian 82(TM) system (copyright 1983,
 Carnegie Mellon University). Gaussian is a federally registered
 trademark of Gaussian, Inc.
  
 This software contains proprietary and confidential information,
 including trade secrets, belonging to Gaussian, Inc.
  
 This software is provided under written license and may be
 used, copied, transmitted, or stored only in accord with that
 written license.
  
 The following legend is applicable only to US Government
 contracts under FAR:
  
                    RESTRICTED RIGHTS LEGEND
  
 Use, reproduction and disclosure by the US Government is
 subject to restrictions as set forth in subparagraphs (a)
 and (c) of the Commercial Computer Software - Restricted
 Rights clause in FAR 52.227-19.
  
 Gaussian, Inc.
 340 Quinnipiac St., Bldg. 40, Wallingford CT 06492
  
  
 ---------------------------------------------------------------
 Warning -- This program may not be used in any manner that
 competes with the business of Gaussian, Inc. or will provide
 assistance to any competitor of Gaussian, Inc.  The licensee
 of this program is prohibited from giving any competitor of
 Gaussian, Inc. access to this program.  By using this program,
 the user acknowledges that Gaussian, Inc. is engaged in the
 business of creating and licensing software in the field of
 computational chemistry and represents and warrants to the
 licensee that it is not a competitor of Gaussian, Inc. and that
 it will not use this program in any manner prohibited above.
 ---------------------------------------------------------------
  

 Cite this work as:
 Gaussian 16, Revision B.01,
 M. J. Frisch, G. W. Trucks, H. B. Schlegel, G. E. Scuseria, 
 M. A. Robb, J. R. Cheeseman, G. Scalmani, V. Barone, 
 G. A. Petersson, H. Nakatsuji, X. Li, M. Caricato, A. V. Marenich, 
 J. Bloino, B. G. Janesko, R. Gomperts, B. Mennucci, H. P. Hratchian, 
 J. V. Ortiz, A. F. Izmaylov, J. L. Sonnenberg, D. Williams-Young, 
 F. Ding, F. Lipparini, F. Egidi, J. Goings, B. Peng, A. Petrone, 
 T. Henderson, D. Ranasinghe, V. G. Zakrzewski, J. Gao, N. Rega, 
 G. Zheng, W. Liang, M. Hada, M. Ehara, K. Toyota, R. Fukuda, 
 J. Hasegawa, M. Ishida, T. Nakajima, Y. Honda, O. Kitao, H. Nakai, 
 T. Vreven, K. Throssell, J. A. Montgomery, Jr., J. E. Peralta, 
 F. Ogliaro, M. J. Bearpark, J. J. Heyd, E. N. Brothers, K. N. Kudin, 
 V. N. Staroverov, T. A. Keith, R. Kobayashi, J. Normand, 
 K. Raghavachari, A. P. Rendell, J. C. Burant, S. S. Iyengar, 
 J. Tomasi, M. Cossi, J. M. Millam, M. Klene, C. Adamo, R. Cammi, 
 J. W. Ochterski, R. L. Martin, K. Morokuma, O. Farkas, 
 J. B. Foresman, and D. J. Fox, Gaussian, Inc., Wallingford CT, 2016.
 
 ******************************************
 Gaussian 16:  ES64L-G16RevB.01 20-Dec-2017
                17-Jun-2019 
 ******************************************
 %mem=80GB
 %nproc=40
 Will use up to   40 processors via shared memory.
 ----------------------------------------------------------------------
 # opt=(calcfc,ts,noeigentest,maxcyc=500,modredundant) uB2PLYPD3/cc-pvt
 z scf=maxcyc=500 nosymm
 ----------------------------------------------------------------------
 1/5=1,6=500,10=4,11=1,18=120,38=1/1,3;
 2/9=110,12=2,15=1,17=6,18=5,40=1/2;
 3/5=16,6=1,11=2,25=1,30=1,71=2,74=-60,116=2,140=1/1,2,3;
 4//1;
 5/5=2,7=500,38=5/2;
 8/6=3,8=1,10=1,19=11,30=-1/1;
 9/15=3,16=-3/6;
 11/6=1,8=1,15=11,17=12,24=-1,27=1,28=-2,29=300,31=1,32=6,42=3/1,2,10;
 10/6=2,21=1,31=1/2;
 8/6=4,8=1,10=1,19=11,30=-1/11,4;
 10/5=1,20=4,31=1/2;
 11/12=2,14=11,16=1,17=2,28=-2,31=1,42=3,76=2/2,10,12;
 6/7=2,8=2,9=2,10=2/1;
 7/10=1,12=2,25=1,30=1,44=2/1,2,3,16;
 1/5=1,6=500,10=4,11=1,18=20/3(2);
 2/9=110,15=1/2;
 99//99;
 2/9=110,15=1/2;
 3/5=16,6=1,11=2,25=1,30=1,71=1,74=-60,116=2/1,2,3;
 4/5=5,16=3,69=1/1;
 5/5=2,7=500,38=5/2;
 8/6=4,10=1/1;
 9/15=2,16=-3/6;
 10/5=1,31=1/2;
 7/12=2,30=1/1,2,3,16;
 1/5=1,6=500,11=1,18=20/3(-8);
 2/9=110,15=1/2;
 6/7=2,8=2,9=2,10=2/1;
 99/9=10/99;
 -------------------
 Title Card Required
 -------------------
 Symbolic Z-matrix:
 Charge =  0 Multiplicity = 2
 C                    -2.79899   1.20896  -0.21808 
 H                    -1.81257   1.54592  -0.54211 
 H                    -3.55185   1.52944  -0.93537 
 H                    -3.02109   1.61387   0.76787 
 O                    -2.87207  -0.20846  -0.20701 
 O                    -1.98963  -0.67582   0.78701 
 H                    -0.98516  -0.84733   0.22521 
 C                     0.1967   -0.9944   -0.43306 
 C                     1.20209  -0.10332   0.23563 
 H                    -0.10643  -0.71033  -1.43762 
 H                     0.36669  -2.06269  -0.33343 
 C                     2.59137  -0.19612  -0.41391 
 H                     0.8646    0.93445   0.20008 
 H                     1.28931  -0.36778   1.29144 
 C                     3.60875   0.71238   0.26851 
 H                     2.93467  -1.23161  -0.37665 
 H                     2.51039   0.06502  -1.4708 
 H                     4.58756   0.63479  -0.20266 
 H                     3.29581   1.75541   0.21911 
 H                     3.72218   0.45009   1.32037 
 
 Add virtual bond connecting atoms H7         and O6         Dist= 2.20D+00.
 Add virtual bond connecting atoms C8         and H7         Dist= 2.57D+00.
 The following ModRedundant input section has been read:
 D    *          8       6    *    R                                           
 D       5       6       8       9 S  36 10.000                                
 

 GradGradGradGradGradGradGradGradGradGradGradGradGradGradGradGradGradGrad
 Berny optimization.
 Initialization pass.
                           ----------------------------
                           !    Initial Parameters    !
                           ! (Angstroms and Degrees)  !
 --------------------------                            --------------------------
 ! Name  Definition              Value          Derivative Info.                !
 --------------------------------------------------------------------------------
 ! R1    R(1,2)                  1.0916         calculate D2E/DX2 analytically  !
 ! R2    R(1,3)                  1.0881         calculate D2E/DX2 analytically  !
 ! R3    R(1,4)                  1.0887         calculate D2E/DX2 analytically  !
 ! R4    R(1,5)                  1.4193         calculate D2E/DX2 analytically  !
 ! R5    R(5,6)                  1.409          calculate D2E/DX2 analytically  !
 ! R6    R(6,7)                  1.1636         calculate D2E/DX2 analytically  !
 ! R7    R(7,8)                  1.3608         calculate D2E/DX2 analytically  !
 ! R8    R(8,9)                  1.5007         calculate D2E/DX2 analytically  !
 ! R9    R(8,10)                 1.0871         calculate D2E/DX2 analytically  !
 ! R10   R(8,11)                 1.0863         calculate D2E/DX2 analytically  !
 ! R11   R(9,12)                 1.5364         calculate D2E/DX2 analytically  !
 ! R12   R(9,13)                 1.0918         calculate D2E/DX2 analytically  !
 ! R13   R(9,14)                 1.0919         calculate D2E/DX2 analytically  !
 ! R14   R(12,15)                1.5252         calculate D2E/DX2 analytically  !
 ! R15   R(12,16)                1.0916         calculate D2E/DX2 analytically  !
 ! R16   R(12,17)                1.0917         calculate D2E/DX2 analytically  !
 ! R17   R(15,18)                1.0891         calculate D2E/DX2 analytically  !
 ! R18   R(15,19)                1.0901         calculate D2E/DX2 analytically  !
 ! R19   R(15,20)                1.09           calculate D2E/DX2 analytically  !
 ! A1    A(2,1,3)              109.794          calculate D2E/DX2 analytically  !
 ! A2    A(2,1,4)              109.7761         calculate D2E/DX2 analytically  !
 ! A3    A(2,1,5)              110.9229         calculate D2E/DX2 analytically  !
 ! A4    A(3,1,4)              110.26           calculate D2E/DX2 analytically  !
 ! A5    A(3,1,5)              105.2864         calculate D2E/DX2 analytically  !
 ! A6    A(4,1,5)              110.7222         calculate D2E/DX2 analytically  !
 ! A7    A(1,5,6)              107.7283         calculate D2E/DX2 analytically  !
 ! A8    A(5,6,7)              104.413          calculate D2E/DX2 analytically  !
 ! A9    A(7,8,9)              107.5868         calculate D2E/DX2 analytically  !
 ! A10   A(7,8,10)             100.1717         calculate D2E/DX2 analytically  !
 ! A11   A(7,8,11)             101.4103         calculate D2E/DX2 analytically  !
 ! A12   A(9,8,10)             116.3225         calculate D2E/DX2 analytically  !
 ! A13   A(9,8,11)             115.9916         calculate D2E/DX2 analytically  !
 ! A14   A(10,8,11)            112.6661         calculate D2E/DX2 analytically  !
 ! A15   A(8,9,12)             112.4303         calculate D2E/DX2 analytically  !
 ! A16   A(8,9,13)             110.0467         calculate D2E/DX2 analytically  !
 ! A17   A(8,9,14)             109.9111         calculate D2E/DX2 analytically  !
 ! A18   A(12,9,13)            108.8528         calculate D2E/DX2 analytically  !
 ! A19   A(12,9,14)            108.7794         calculate D2E/DX2 analytically  !
 ! A20   A(13,9,14)            106.641          calculate D2E/DX2 analytically  !
 ! A21   A(9,12,15)            112.2123         calculate D2E/DX2 analytically  !
 ! A22   A(9,12,16)            109.1022         calculate D2E/DX2 analytically  !
 ! A23   A(9,12,17)            109.1337         calculate D2E/DX2 analytically  !
 ! A24   A(15,12,16)           109.8769         calculate D2E/DX2 analytically  !
 ! A25   A(15,12,17)           109.8874         calculate D2E/DX2 analytically  !
 ! A26   A(16,12,17)           106.457          calculate D2E/DX2 analytically  !
 ! A27   A(12,15,18)           111.3161         calculate D2E/DX2 analytically  !
 ! A28   A(12,15,19)           110.9885         calculate D2E/DX2 analytically  !
 ! A29   A(12,15,20)           110.9689         calculate D2E/DX2 analytically  !
 ! A30   A(18,15,19)           107.8533         calculate D2E/DX2 analytically  !
 ! A31   A(18,15,20)           107.8679         calculate D2E/DX2 analytically  !
 ! A32   A(19,15,20)           107.6895         calculate D2E/DX2 analytically  !
 ! A33   L(6,7,8,2,-1)         177.98           calculate D2E/DX2 analytically  !
 ! A34   L(6,7,8,2,-2)         178.9241         calculate D2E/DX2 analytically  !
 ! D1    D(2,1,5,6)             65.9279         calculate D2E/DX2 analytically  !
 ! D2    D(3,1,5,6)           -175.3648         calculate D2E/DX2 analytically  !
 ! D3    D(4,1,5,6)            -56.2075         calculate D2E/DX2 analytically  !
 ! D4    D(1,5,6,7)            -91.44           calculate D2E/DX2 analytically  !
 ! D5    D(5,6,8,9)            120.1643         Scan                            !
 ! D6    D(7,8,9,12)           179.3177         calculate D2E/DX2 analytically  !
 ! D7    D(7,8,9,13)           -59.1649         calculate D2E/DX2 analytically  !
 ! D8    D(7,8,9,14)            57.9898         calculate D2E/DX2 analytically  !
 ! D9    D(10,8,9,12)          -69.3671         calculate D2E/DX2 analytically  !
 ! D10   D(10,8,9,13)           52.1503         calculate D2E/DX2 analytically  !
 ! D11   D(10,8,9,14)          169.305          calculate D2E/DX2 analytically  !
 ! D12   D(11,8,9,12)           66.6477         calculate D2E/DX2 analytically  !
 ! D13   D(11,8,9,13)         -171.8349         calculate D2E/DX2 analytically  !
 ! D14   D(11,8,9,14)          -54.6802         calculate D2E/DX2 analytically  !
 ! D15   D(8,9,12,15)          179.9415         calculate D2E/DX2 analytically  !
 ! D16   D(8,9,12,16)          -58.048          calculate D2E/DX2 analytically  !
 ! D17   D(8,9,12,17)           57.8957         calculate D2E/DX2 analytically  !
 ! D18   D(13,9,12,15)          57.7456         calculate D2E/DX2 analytically  !
 ! D19   D(13,9,12,16)         179.7561         calculate D2E/DX2 analytically  !
 ! D20   D(13,9,12,17)         -64.3002         calculate D2E/DX2 analytically  !
 ! D21   D(14,9,12,15)         -58.086          calculate D2E/DX2 analytically  !
 ! D22   D(14,9,12,16)          63.9245         calculate D2E/DX2 analytically  !
 ! D23   D(14,9,12,17)         179.8682         calculate D2E/DX2 analytically  !
 ! D24   D(9,12,15,18)         179.9664         calculate D2E/DX2 analytically  !
 ! D25   D(9,12,15,19)         -59.8895         calculate D2E/DX2 analytically  !
 ! D26   D(9,12,15,20)          59.817          calculate D2E/DX2 analytically  !
 ! D27   D(16,12,15,18)         58.3983         calculate D2E/DX2 analytically  !
 ! D28   D(16,12,15,19)        178.5424         calculate D2E/DX2 analytically  !
 ! D29   D(16,12,15,20)        -61.751          calculate D2E/DX2 analytically  !
 ! D30   D(17,12,15,18)        -58.418          calculate D2E/DX2 analytically  !
 ! D31   D(17,12,15,19)         61.7261         calculate D2E/DX2 analytically  !
 ! D32   D(17,12,15,20)       -178.5674         calculate D2E/DX2 analytically  !
 --------------------------------------------------------------------------------
 Trust Radius=3.00D-01 FncErr=1.00D-07 GrdErr=1.00D-07 EigMax=2.50D+02 EigMin=1.00D-04
 Number of optimizations in scan=  37
 Number of steps in this run=    120 maximum allowed number of steps=    120.
 Search for a saddle point of order  1.
 GradGradGradGradGradGradGradGradGradGradGradGradGradGradGradGradGradGrad

                          Input orientation:                          
 ---------------------------------------------------------------------
 Center     Atomic      Atomic             Coordinates (Angstroms)
 Number     Number       Type             X           Y           Z
 ---------------------------------------------------------------------
      1          6           0       -2.798993    1.208957   -0.218078
      2          1           0       -1.812565    1.545918   -0.542105
      3          1           0       -3.551854    1.529440   -0.935368
      4          1           0       -3.021086    1.613868    0.767865
      5          8           0       -2.872074   -0.208464   -0.207009
      6          8           0       -1.989625   -0.675821    0.787014
      7          1           0       -0.985164   -0.847325    0.225205
      8          6           0        0.196697   -0.994399   -0.433056
      9          6           0        1.202091   -0.103319    0.235628
     10          1           0       -0.106425   -0.710334   -1.437616
     11          1           0        0.366687   -2.062690   -0.333433
     12          6           0        2.591366   -0.196115   -0.413913
     13          1           0        0.864600    0.934449    0.200078
     14          1           0        1.289312   -0.367775    1.291435
     15          6           0        3.608752    0.712383    0.268507
     16          1           0        2.934674   -1.231606   -0.376648
     17          1           0        2.510394    0.065016   -1.470802
     18          1           0        4.587556    0.634791   -0.202655
     19          1           0        3.295812    1.755408    0.219110
     20          1           0        3.722180    0.450085    1.320372
 ---------------------------------------------------------------------
                    Distance matrix (angstroms):
                    1          2          3          4          5
     1  C    0.000000
     2  H    1.091594   0.000000
     3  H    1.088124   1.783270   0.000000
     4  H    1.088743   1.783581   1.786014   0.000000
     5  O    1.419347   2.076705   2.003227   2.072071   0.000000
     6  O    2.284223   2.595001   3.204736   2.511365   1.408979
     7  H    2.777548   2.645934   3.685626   3.239896   2.038475
     8  C    3.724936   3.240715   4.546836   4.312702   3.175869
     9  C    4.235161   3.523209   5.161117   4.589905   4.099488
    10  H    3.524326   2.967074   4.140027   4.331433   3.068400
    11  H    4.553956   4.220751   5.349831   5.119272   3.734128
    12  C    5.573917   4.737691   6.402235   6.014337   5.467370
    13  H    3.697583   2.844634   4.598730   3.985291   3.928702
    14  H    4.634539   4.079918   5.656409   4.772899   4.425816
    15  C    6.445351   5.544597   7.306927   6.709455   6.563168
    16  H    6.233493   5.502572   7.071816   6.699083   5.898637
    17  H    5.573824   4.662995   6.259559   6.165050   5.535605
    18  H    7.408847   6.473556   8.221147   7.732524   7.507142
    19  H    6.134850   5.169028   6.947979   6.342268   6.487001
    20  H    6.743027   5.941639   7.691875   6.865223   6.800792
                    6          7          8          9         10
     6  O    0.000000
     7  H    1.163609   0.000000
     8  C    2.523899   1.360784   0.000000
     9  C    3.289200   2.310355   1.500660   0.000000
    10  H    2.914895   1.885715   1.087068   2.209169   0.000000
    11  H    2.954829   1.901760   1.086309   2.204737   1.808845
    12  C    4.760023   3.691086   2.524295   1.536424   2.930950
    13  H    3.329274   2.568458   2.137149   1.091845   2.515997
    14  H    3.331780   2.557353   2.135494   1.091912   3.084339
    15  C    5.791182   4.851662   3.879100   2.541352   4.328686
    16  H    5.090356   3.984348   2.748812   2.156330   3.262769
    17  H    5.088884   3.990956   2.748176   2.156826   2.729471
    18  H    6.779119   5.782295   4.689028   3.492602   5.036660
    19  H    5.845446   5.010091   4.194195   2.799787   4.516618
    20  H    5.846097   5.004173   4.194052   2.798888   4.859145
                   11         12         13         14         15
    11  H    0.000000
    12  C    2.905129   0.000000
    13  H    3.084703   2.153342   0.000000
    14  H    2.522731   2.152446   1.751350   0.000000
    15  C    4.309797   1.525169   2.753973   2.755526   0.000000
    16  H    2.699468   1.091554   3.051166   2.497183   2.156316
    17  H    3.227417   1.091678   2.501278   3.050951   2.156541
    18  H    5.010912   2.172512   3.756646   3.757108   1.089069
    19  H    4.843857   2.169194   2.566150   3.111885   1.090079
    20  H    4.506489   2.168884   3.107319   2.566823   1.089994
                   16         17         18         19         20
    16  H    0.000000
    17  H    1.748832   0.000000
    18  H    2.499146   2.499488   0.000000
    19  H    3.067181   2.515971   1.761326   0.000000
    20  H    2.515577   3.067141   1.761421   1.760237   0.000000
 Symmetry turned off by external request.
 Stoichiometry    C5H13O2(2)
 Framework group  C1[X(C5H13O2)]
 Deg. of freedom    54
 Full point group                 C1      NOp   1
 Rotational constants (GHZ):           5.6162553           0.7659479           0.7259737
 Standard basis: CC-pVTZ (5D, 7F)
   392 basis functions,   585 primitive gaussians,   440 cartesian basis functions
    30 alpha electrons       29 beta electrons
       nuclear repulsion energy       310.4864402205 Hartrees.
 NAtoms=   20 NActive=   20 NUniq=   20 SFac= 1.00D+00 NAtFMM=   60 NAOKFM=F Big=F
 Integral buffers will be    131072 words long.
 Raffenetti 2 integral format.
 Two-electron integral symmetry is turned off.
 Nuclear repulsion after empirical dispersion term =      310.4766425717 Hartrees.
 One-electron integrals computed using PRISM.
 NBasis=   392 RedAO= T EigKep=  5.18D-04  NBF=   392
 NBsUse=   392 1.00D-06 EigRej= -1.00D+00 NBFU=   392
 ExpMin= 1.03D-01 ExpMax= 1.53D+04 ExpMxC= 5.22D+02 IAcc=3 IRadAn=         5 AccDes= 0.00D+00
 Harris functional with IExCor=  419 and IRadAn=       5 diagonalized for initial guess.
 HarFok:  IExCor=  419 AccDes= 0.00D+00 IRadAn=         5 IDoV= 1 UseB2=F ITyADJ=14
 ICtDFT=  3500011 ScaDFX=  1.000000  1.000000  1.000000  1.000000
 FoFCou: FMM=F IPFlag=           0 FMFlag=      100000 FMFlg1=           0
         NFxFlg=           0 DoJE=T BraDBF=F KetDBF=T FulRan=T
         wScrn=  0.000000 ICntrl=       500 IOpCl=  0 I1Cent=   200000004 NGrid=           0
         NMat0=    1 NMatS0=      1 NMatT0=    0 NMatD0=    1 NMtDS0=    0 NMtDT0=    0
 Symmetry not used in FoFCou.
 Initial guess <Sx>= 0.0000 <Sy>= 0.0000 <Sz>= 0.5000 <S**2>= 0.7500 S= 0.5000
 Requested convergence on RMS density matrix=1.00D-08 within 500 cycles.
 Requested convergence on MAX density matrix=1.00D-06.
 Requested convergence on             energy=1.00D-06.
 No special actions if energy rises.
 Integral accuracy reduced to 1.0D-05 until final iterations.
 Initial convergence to 1.0D-05 achieved.  Increase integral accuracy.
 SCF Done:  E(UB2PLYPD3) =  -348.023850816     A.U. after   19 cycles
            NFock= 19  Conv=0.29D-08     -V/T= 2.0044
 <Sx>= 0.0000 <Sy>= 0.0000 <Sz>= 0.5000 <S**2>= 0.7683 S= 0.5091
 <L.S>=  0.00000000000    
 Annihilation of the first spin contaminant:
 S**2 before annihilation     0.7683,   after     0.7501
 DoSCS=T DFT=T ScalE2(SS,OS)=  0.270000  0.270000
 ExpMin= 1.03D-01 ExpMax= 1.53D+04 ExpMxC= 5.22D+02 IAcc=3 IRadAn=         5 AccDes= 0.00D+00
 HarFok:  IExCor=  205 AccDes= 0.00D+00 IRadAn=         5 IDoV=-2 UseB2=F ITyADJ=14
 ICtDFT= 12500011 ScaDFX=  1.000000  1.000000  1.000000  1.000000
 Range of M.O.s used for correlation:     8   392
 NBasis=   392 NAE=    30 NBE=    29 NFC=     7 NFV=     0
 NROrb=    385 NOA=    23 NOB=    22 NVA=   362 NVB=   363

 **** Warning!!: The largest alpha MO coefficient is  0.12094014D+02


 **** Warning!!: The largest beta MO coefficient is  0.12093530D+02

 DoSCS=T DFT=T ScalE2(SS,OS)=  0.270000  0.270000
 Disk-based method using ON**2 memory for 23 occupieds at a time.
 Permanent disk used for amplitudes=   169421973 words.
 Estimated scratch disk usage=  3093972496 words.
 Actual    scratch disk usage=  2992334864 words.
 JobTyp=2 Pass  1:  I=   8 to  30 NPSUse= 40 ParTrn=T ParDer=T DoDerP=T.
 (rs|ai) integrals will be sorted in core.
 Actual    scratch disk usage=  2992334864 words.
 JobTyp=3 Pass  1:  I=   8 to  29 NPSUse= 40 ParTrn=T ParDer=T DoDerP=T.
 (rs|ai) integrals will be sorted in core.
 Spin components of T(2) and E(2):
     alpha-alpha T2 =       0.7437122933D-01 E2=     -0.5375123505D-01
     alpha-beta  T2 =       0.4579231469D+00 E2=     -0.3427839171D+00
     beta-beta   T2 =       0.7867674867D-01 E2=     -0.5208247940D-01
 (S**2,0)=  0.76834D+00           (S**2,1)=  0.74274D+00
 Scaling Projection term by:   0.270000
 E(PUHF)=      -0.34803002137D+03        E(PMP2)=      -0.34847297741D+03
 E2(B2PLYPD3) =    -0.4486176315D+00 E(B2PLYPD3) =    -0.34847246844731D+03
 G2DrvN: will do    21 centers at a time, making    1 passes.
 Calling FoFCou, ICntrl=  3107 FMM=F I1Cent=   0 AccDes= 0.00D+00.
 End of G2Drv F.D. properties file   721 does not exist.
 End of G2Drv F.D. properties file   722 does not exist.
 End of G2Drv F.D. properties file   788 does not exist.
          IDoAtm=11111111111111111111
          Differentiating once with respect to electric field.
                with respect to dipole field.
          Differentiating once with respect to nuclear coordinates.
 CalDSu exits because no D1Ps are significant.
          There are    63 degrees of freedom in the 1st order CPHF.  IDoFFX=6 NUNeed=    63.
     60 vectors produced by pass  0 Test12= 3.39D-14 1.59D-09 XBig12= 8.96D+01 5.39D+00.
 AX will form    60 AO Fock derivatives at one time.
     60 vectors produced by pass  1 Test12= 3.39D-14 1.59D-09 XBig12= 6.29D+00 3.10D-01.
     60 vectors produced by pass  2 Test12= 3.39D-14 1.59D-09 XBig12= 3.62D-01 9.42D-02.
     60 vectors produced by pass  3 Test12= 3.39D-14 1.59D-09 XBig12= 5.58D-03 6.60D-03.
     60 vectors produced by pass  4 Test12= 3.39D-14 1.59D-09 XBig12= 5.24D-05 7.55D-04.
     60 vectors produced by pass  5 Test12= 3.39D-14 1.59D-09 XBig12= 6.27D-07 8.05D-05.
     57 vectors produced by pass  6 Test12= 3.39D-14 1.59D-09 XBig12= 5.15D-09 5.68D-06.
     22 vectors produced by pass  7 Test12= 3.39D-14 1.59D-09 XBig12= 3.05D-11 4.05D-07.
      3 vectors produced by pass  8 Test12= 3.39D-14 1.59D-09 XBig12= 1.80D-13 2.95D-08.
      2 vectors produced by pass  9 Test12= 3.39D-14 1.59D-09 XBig12= 1.46D-15 2.75D-09.
 InvSVY:  IOpt=1 It=  1 EMax= 8.88D-15
 Solved reduced A of dimension   444 with    63 vectors.
 End of Minotr F.D. properties file   721 does not exist.
 End of Minotr F.D. properties file   722 does not exist.
 End of Minotr F.D. properties file   788 does not exist.
 MDV= 10737418240.
 DoSCS=T DFT=T ScalE2(SS,OS)=  0.270000  0.270000
 Form MO integral derivatives with frozen-active canonical formalism.
 Discarding MO integrals.
 Reordered first order wavefunction length =    681858357
 In DefCFB: NBatch=  1 ICI= 30 ICA=363 LFMax= 73
            Large arrays: LIAPS= 14755319040 LIARS=  2347884000 words.
 In DefCFB: NBatch=  1 ICI= 30 ICA=363 LFMax= 73
            Large arrays: LIAPS= 14755319040 LIARS=  2347884000 words.
 Semi-Direct transformation.
 ModeAB=           4 MOrb=            30 LenV=   10733006367
 LASXX=    860785125 LTotXX=   860785125 LenRXX=  1733127225
 LTotAB=   872342100 MaxLAS=   931850640 LenRXY=           0
 NonZer=  2593912350 LenScr=  3906126848 LnRSAI=   931850640
 LnScr1=  1403257856 LExtra=           0 Total=   7974362569
 MaxDsk=          -1 SrtSym=           T ITran=            4
 JobTyp=1 Pass  1:  I=   1 to  30.
 (rs|ai) integrals will be sorted in core.
 ModeAB=           4 MOrb=            29 LenV=   10733006367
 LASXX=    833505211 LTotXX=   833505211 LenRXX=  1553741497
 LTotAB=   720236286 MaxLAS=   900788952 LenRXY=           0
 NonZer=  2387246708 LenScr=  3594912768 LnRSAI=   900788952
 LnScr1=  1356482560 LExtra=           0 Total=   7405925777
 MaxDsk=          -1 SrtSym=           T ITran=            4
 JobTyp=2 Pass  1:  I=   1 to  29.
 (rs|ai) integrals will be sorted in core.
 DoSCS=T DFT=T ScalE2(SS,OS)=  0.270000  0.270000
 Spin components of T(2) and E(2):
     alpha-alpha T2 =       0.7437122933D-01 E2=     -0.5375123505D-01
     alpha-beta  T2 =       0.4579231469D+00 E2=     -0.3427839171D+00
     beta-beta   T2 =       0.7867674867D-01 E2=     -0.5208247940D-01
 E2(B2PLYPD3) =    -0.4486176315D+00 E(B2PLYPD3) =    -0.34847246844731D+03
 (S**2,0)=  0.76834D+00           (S**2,1)=  0.74274D+00
 Scaling Projection term by:   0.270000
 E(PUHF)=      -0.34803002137D+03        E(PMP2)=      -0.34847297741D+03
          IDoAtm=11111111111111111111
          Differentiating once with respect to electric field.
                with respect to dipole field.
          Differentiating once with respect to nuclear coordinates.
          There are     1 degrees of freedom in the 1st order CPHF.  IDoFFX=0 NUNeed=     1.
 LinEq1:  Iter=  0 NonCon=     1 RMS=7.65D-04 Max=6.23D-02 NDo=     1
 AX will form     1 AO Fock derivatives at one time.
 LinEq1:  Iter=  1 NonCon=     1 RMS=2.44D-04 Max=8.17D-03 NDo=     1
 LinEq1:  Iter=  2 NonCon=     1 RMS=1.33D-04 Max=8.68D-03 NDo=     1
 LinEq1:  Iter=  3 NonCon=     1 RMS=5.41D-05 Max=1.06D-03 NDo=     1
 LinEq1:  Iter=  4 NonCon=     1 RMS=2.85D-05 Max=7.81D-04 NDo=     1
 LinEq1:  Iter=  5 NonCon=     1 RMS=1.93D-05 Max=6.77D-04 NDo=     1
 LinEq1:  Iter=  6 NonCon=     1 RMS=1.29D-05 Max=4.68D-04 NDo=     1
 LinEq1:  Iter=  7 NonCon=     1 RMS=4.94D-06 Max=1.37D-04 NDo=     1
 LinEq1:  Iter=  8 NonCon=     1 RMS=2.46D-06 Max=5.31D-05 NDo=     1
 LinEq1:  Iter=  9 NonCon=     1 RMS=9.75D-07 Max=2.85D-05 NDo=     1
 LinEq1:  Iter= 10 NonCon=     1 RMS=3.44D-07 Max=9.29D-06 NDo=     1
 LinEq1:  Iter= 11 NonCon=     1 RMS=1.40D-07 Max=2.77D-06 NDo=     1
 LinEq1:  Iter= 12 NonCon=     1 RMS=5.99D-08 Max=1.45D-06 NDo=     1
 LinEq1:  Iter= 13 NonCon=     1 RMS=2.23D-08 Max=6.13D-07 NDo=     1
 LinEq1:  Iter= 14 NonCon=     1 RMS=7.44D-09 Max=2.94D-07 NDo=     1
 LinEq1:  Iter= 15 NonCon=     1 RMS=2.83D-09 Max=1.30D-07 NDo=     1
 LinEq1:  Iter= 16 NonCon=     1 RMS=1.35D-09 Max=8.46D-08 NDo=     1
 LinEq1:  Iter= 17 NonCon=     1 RMS=6.27D-10 Max=4.27D-08 NDo=     1
 LinEq1:  Iter= 18 NonCon=     1 RMS=2.10D-10 Max=1.03D-08 NDo=     1
 LinEq1:  Iter= 19 NonCon=     1 RMS=6.37D-11 Max=1.62D-09 NDo=     1
 LinEq1:  Iter= 20 NonCon=     0 RMS=1.82D-11 Max=4.01D-10 NDo=     1
 Linear equations converged to 1.000D-10 1.000D-09 after    20 iterations.
 End of Minotr F.D. properties file   721 does not exist.
 End of Minotr F.D. properties file   722 does not exist.
 End of Minotr F.D. properties file   788 does not exist.
 Symmetrizing basis deriv contribution to polar:
 IMax=3 JMax=2 DiffMx= 0.00D+00
 G2DrvN: will do    21 centers at a time, making    1 passes.
 Calling FoFCou, ICntrl=  3107 FMM=F I1Cent=   0 AccDes= 0.00D+00.
 End of G2Drv F.D. properties file   721 does not exist.
 End of G2Drv F.D. properties file   722 does not exist.
 End of G2Drv F.D. properties file   788 does not exist.
 DoSCS=T DFT=T ScalE2(SS,OS)=  0.270000  0.270000
 R2 and R3 integrals will be kept in memory, NReq=  9455860260.
 DD1Dir will call FoFMem   1 times, MxPair=      2582
 NAB=   870 NAA=   435 NBB=   406.
 Discarding MO integrals.

 **********************************************************************

            Population analysis using the SCF Density.

 **********************************************************************

 Alpha  occ. eigenvalues --  -19.78289 -19.78175 -10.65892 -10.63587 -10.62051
 Alpha  occ. eigenvalues --  -10.61879 -10.60679  -1.27059  -1.01818  -0.92917
 Alpha  occ. eigenvalues --   -0.85108  -0.77540  -0.74210  -0.68136  -0.60526
 Alpha  occ. eigenvalues --   -0.56297  -0.55236  -0.54225  -0.50755  -0.50277
 Alpha  occ. eigenvalues --   -0.49987  -0.47074  -0.43913  -0.43163  -0.42631
 Alpha  occ. eigenvalues --   -0.41108  -0.39749  -0.36347  -0.36236  -0.29762
 Alpha virt. eigenvalues --    0.06918   0.08781   0.09942   0.10961   0.12220
 Alpha virt. eigenvalues --    0.13144   0.14355   0.15593   0.15848   0.16163
 Alpha virt. eigenvalues --    0.16610   0.17790   0.20090   0.22140   0.22685
 Alpha virt. eigenvalues --    0.24154   0.24767   0.27923   0.30889   0.31145
 Alpha virt. eigenvalues --    0.32102   0.33445   0.34931   0.35730   0.36398
 Alpha virt. eigenvalues --    0.38608   0.40077   0.45505   0.45694   0.46357
 Alpha virt. eigenvalues --    0.47279   0.47615   0.49557   0.51566   0.51817
 Alpha virt. eigenvalues --    0.52599   0.52782   0.53033   0.53964   0.54851
 Alpha virt. eigenvalues --    0.55072   0.55457   0.56038   0.56767   0.57360
 Alpha virt. eigenvalues --    0.58041   0.60044   0.61886   0.63369   0.67642
 Alpha virt. eigenvalues --    0.68102   0.69718   0.71620   0.75408   0.77649
 Alpha virt. eigenvalues --    0.78947   0.79300   0.81221   0.82534   0.83103
 Alpha virt. eigenvalues --    0.86848   0.88272   0.88548   0.90397   0.91612
 Alpha virt. eigenvalues --    0.93006   0.94956   0.95652   0.97917   0.99823
 Alpha virt. eigenvalues --    1.03134   1.04709   1.05913   1.07912   1.08510
 Alpha virt. eigenvalues --    1.09030   1.11200   1.12262   1.12808   1.13667
 Alpha virt. eigenvalues --    1.14966   1.16482   1.17131   1.18388   1.19029
 Alpha virt. eigenvalues --    1.21772   1.22816   1.23949   1.24416   1.25927
 Alpha virt. eigenvalues --    1.26283   1.27107   1.29831   1.30520   1.31297
 Alpha virt. eigenvalues --    1.34137   1.34579   1.36090   1.38160   1.38948
 Alpha virt. eigenvalues --    1.39369   1.40400   1.40992   1.42511   1.45336
 Alpha virt. eigenvalues --    1.47153   1.48247   1.48788   1.50398   1.50633
 Alpha virt. eigenvalues --    1.54119   1.55811   1.60006   1.61056   1.63544
 Alpha virt. eigenvalues --    1.64194   1.65170   1.66968   1.67186   1.72044
 Alpha virt. eigenvalues --    1.75180   1.78142   1.78841   1.79615   1.87489
 Alpha virt. eigenvalues --    1.95027   1.99815   2.05118   2.12650   2.19653
 Alpha virt. eigenvalues --    2.21309   2.28485   2.31694   2.37057   2.38096
 Alpha virt. eigenvalues --    2.40427   2.42172   2.43209   2.45668   2.47489
 Alpha virt. eigenvalues --    2.48151   2.49399   2.51694   2.56127   2.57257
 Alpha virt. eigenvalues --    2.58897   2.60633   2.64088   2.67488   2.68534
 Alpha virt. eigenvalues --    2.69008   2.69683   2.72105   2.75050   2.77912
 Alpha virt. eigenvalues --    2.79700   2.80499   2.82579   2.85306   2.87428
 Alpha virt. eigenvalues --    2.90399   2.91320   2.92128   2.93089   2.93992
 Alpha virt. eigenvalues --    2.94898   2.96704   2.97233   3.00575   3.02631
 Alpha virt. eigenvalues --    3.04310   3.05564   3.08299   3.09963   3.11599
 Alpha virt. eigenvalues --    3.12335   3.13181   3.14111   3.15061   3.15711
 Alpha virt. eigenvalues --    3.17786   3.18490   3.18837   3.19852   3.20478
 Alpha virt. eigenvalues --    3.21545   3.23180   3.23905   3.25293   3.27803
 Alpha virt. eigenvalues --    3.29158   3.31287   3.31405   3.33338   3.36462
 Alpha virt. eigenvalues --    3.37541   3.38998   3.41571   3.42070   3.44122
 Alpha virt. eigenvalues --    3.45247   3.46663   3.47068   3.50527   3.52011
 Alpha virt. eigenvalues --    3.53693   3.54970   3.55754   3.57532   3.57880
 Alpha virt. eigenvalues --    3.58248   3.60299   3.61356   3.63425   3.66494
 Alpha virt. eigenvalues --    3.67248   3.68498   3.68860   3.73128   3.76035
 Alpha virt. eigenvalues --    3.76739   3.79652   3.81713   3.82307   3.84968
 Alpha virt. eigenvalues --    3.86375   3.87839   3.88333   3.89309   3.90309
 Alpha virt. eigenvalues --    3.93233   3.94061   3.94982   3.96078   3.96977
 Alpha virt. eigenvalues --    3.97965   3.99254   4.00187   4.00400   4.02283
 Alpha virt. eigenvalues --    4.04523   4.06678   4.07963   4.08614   4.10254
 Alpha virt. eigenvalues --    4.11353   4.13186   4.15606   4.17831   4.18371
 Alpha virt. eigenvalues --    4.19368   4.20340   4.22151   4.23549   4.24159
 Alpha virt. eigenvalues --    4.24925   4.24959   4.26290   4.29166   4.31162
 Alpha virt. eigenvalues --    4.35198   4.35277   4.36086   4.38864   4.39626
 Alpha virt. eigenvalues --    4.40561   4.42421   4.43067   4.44079   4.46342
 Alpha virt. eigenvalues --    4.47153   4.51082   4.53665   4.58203   4.60428
 Alpha virt. eigenvalues --    4.64678   4.67447   4.69045   4.71816   4.75913
 Alpha virt. eigenvalues --    4.78130   4.81356   4.81613   4.82909   4.87290
 Alpha virt. eigenvalues --    4.90066   4.90972   4.93023   4.94998   4.98989
 Alpha virt. eigenvalues --    4.99540   4.99878   5.00290   5.02227   5.04625
 Alpha virt. eigenvalues --    5.06407   5.06945   5.08449   5.10756   5.12662
 Alpha virt. eigenvalues --    5.17536   5.22100   5.22988   5.25677   5.29626
 Alpha virt. eigenvalues --    5.30324   5.31530   5.34036   5.34354   5.36473
 Alpha virt. eigenvalues --    5.39570   5.40484   5.40751   5.42522   5.47615
 Alpha virt. eigenvalues --    5.48145   5.49232   5.51146   5.54759   5.58484
 Alpha virt. eigenvalues --    5.63486   5.65308   5.65701   5.66619   5.68340
 Alpha virt. eigenvalues --    5.68666   5.73336   5.78453   5.79857   5.88192
 Alpha virt. eigenvalues --    5.94312   5.96782   6.02376   6.05182   6.07074
 Alpha virt. eigenvalues --    6.08868   6.09278   6.10672   6.19133   6.25527
 Alpha virt. eigenvalues --    6.31972   6.38067   6.42501   6.64090   6.75345
 Alpha virt. eigenvalues --    6.76085   6.83479   6.96352   7.05354   7.06918
 Alpha virt. eigenvalues --    7.19960   7.42297   7.44406   7.58594   7.73269
 Alpha virt. eigenvalues --    9.90979  10.59418  12.58349  12.88945  13.28333
 Alpha virt. eigenvalues --   13.41298  13.70689
  Beta  occ. eigenvalues --  -19.78157 -19.76561 -10.65901 -10.62324 -10.62109
  Beta  occ. eigenvalues --  -10.61760 -10.60659  -1.25206  -0.98924  -0.92092
  Beta  occ. eigenvalues --   -0.83574  -0.77134  -0.72407  -0.67656  -0.57227
  Beta  occ. eigenvalues --   -0.55884  -0.54178  -0.53913  -0.50410  -0.49604
  Beta  occ. eigenvalues --   -0.47864  -0.45305  -0.43211  -0.42738  -0.41338
  Beta  occ. eigenvalues --   -0.40732  -0.39652  -0.35121  -0.33076
  Beta virt. eigenvalues --   -0.04380   0.07020   0.08851   0.10189   0.11097
  Beta virt. eigenvalues --    0.12306   0.13743   0.14617   0.15689   0.15968
  Beta virt. eigenvalues --    0.16199   0.16729   0.17951   0.20429   0.22712
  Beta virt. eigenvalues --    0.22866   0.24667   0.25071   0.28040   0.30937
  Beta virt. eigenvalues --    0.31246   0.32413   0.34066   0.35445   0.36024
  Beta virt. eigenvalues --    0.36792   0.39236   0.40825   0.45759   0.45841
  Beta virt. eigenvalues --    0.46713   0.47409   0.47972   0.50085   0.51755
  Beta virt. eigenvalues --    0.52031   0.52966   0.53153   0.53705   0.54349
  Beta virt. eigenvalues --    0.55113   0.55580   0.56193   0.56849   0.57244
  Beta virt. eigenvalues --    0.58085   0.58532   0.60559   0.62037   0.63810
  Beta virt. eigenvalues --    0.67938   0.68302   0.69897   0.72125   0.76200
  Beta virt. eigenvalues --    0.78042   0.79192   0.79449   0.81348   0.82722
  Beta virt. eigenvalues --    0.83393   0.87191   0.88415   0.89086   0.90637
  Beta virt. eigenvalues --    0.91927   0.93337   0.95221   0.96140   0.97936
  Beta virt. eigenvalues --    1.00123   1.03217   1.04850   1.06028   1.08216
  Beta virt. eigenvalues --    1.08915   1.09171   1.11289   1.12410   1.12923
  Beta virt. eigenvalues --    1.13810   1.15042   1.16568   1.17325   1.18505
  Beta virt. eigenvalues --    1.19428   1.21957   1.23270   1.24065   1.24672
  Beta virt. eigenvalues --    1.26149   1.26514   1.27293   1.30146   1.30979
  Beta virt. eigenvalues --    1.31899   1.34319   1.34905   1.36309   1.38319
  Beta virt. eigenvalues --    1.38988   1.39518   1.40599   1.41082   1.42775
  Beta virt. eigenvalues --    1.45738   1.47283   1.48423   1.49101   1.50773
  Beta virt. eigenvalues --    1.51286   1.54288   1.56063   1.60403   1.61406
  Beta virt. eigenvalues --    1.63688   1.64718   1.65259   1.67084   1.67568
  Beta virt. eigenvalues --    1.72807   1.75413   1.78586   1.79038   1.79933
  Beta virt. eigenvalues --    1.90448   1.95881   2.00483   2.06069   2.12966
  Beta virt. eigenvalues --    2.21129   2.22259   2.29152   2.32062   2.37268
  Beta virt. eigenvalues --    2.38176   2.41281   2.42460   2.43648   2.46011
  Beta virt. eigenvalues --    2.47741   2.48575   2.49669   2.51920   2.56385
  Beta virt. eigenvalues --    2.57915   2.59101   2.60822   2.64866   2.67690
  Beta virt. eigenvalues --    2.68733   2.69419   2.70136   2.72323   2.75226
  Beta virt. eigenvalues --    2.78701   2.79856   2.80742   2.82974   2.85503
  Beta virt. eigenvalues --    2.87639   2.90940   2.91535   2.92238   2.93601
  Beta virt. eigenvalues --    2.94418   2.95640   2.97460   2.97556   3.00782
  Beta virt. eigenvalues --    3.03211   3.04521   3.05802   3.08541   3.10846
  Beta virt. eigenvalues --    3.11815   3.12624   3.13223   3.14475   3.15372
  Beta virt. eigenvalues --    3.15981   3.17995   3.18657   3.19263   3.20024
  Beta virt. eigenvalues --    3.20716   3.21624   3.23562   3.24165   3.25766
  Beta virt. eigenvalues --    3.28513   3.29394   3.31389   3.32539   3.33722
  Beta virt. eigenvalues --    3.36557   3.37700   3.39421   3.41679   3.42145
  Beta virt. eigenvalues --    3.44183   3.46420   3.46726   3.47785   3.50804
  Beta virt. eigenvalues --    3.52345   3.53997   3.55136   3.55987   3.57747
  Beta virt. eigenvalues --    3.58129   3.58484   3.60588   3.61607   3.63552
  Beta virt. eigenvalues --    3.66637   3.67356   3.68710   3.68995   3.73693
  Beta virt. eigenvalues --    3.76558   3.76843   3.79857   3.81907   3.82401
  Beta virt. eigenvalues --    3.85086   3.86386   3.87971   3.88520   3.89331
  Beta virt. eigenvalues --    3.90403   3.93324   3.93914   3.94930   3.96256
  Beta virt. eigenvalues --    3.97101   3.98069   3.99467   4.00279   4.00475
  Beta virt. eigenvalues --    4.02411   4.04821   4.06930   4.07987   4.08607
  Beta virt. eigenvalues --    4.10359   4.11401   4.13319   4.15875   4.18017
  Beta virt. eigenvalues --    4.18473   4.19581   4.20519   4.22300   4.23816
  Beta virt. eigenvalues --    4.24282   4.25019   4.25239   4.26289   4.29294
  Beta virt. eigenvalues --    4.31533   4.35294   4.35433   4.36111   4.39043
  Beta virt. eigenvalues --    4.39753   4.40689   4.42537   4.43152   4.44208
  Beta virt. eigenvalues --    4.46387   4.47621   4.51427   4.53788   4.58780
  Beta virt. eigenvalues --    4.61096   4.65116   4.68026   4.69601   4.72229
  Beta virt. eigenvalues --    4.76493   4.78399   4.81430   4.81769   4.83052
  Beta virt. eigenvalues --    4.87442   4.90456   4.91537   4.93425   4.95202
  Beta virt. eigenvalues --    4.99169   4.99625   4.99993   5.00457   5.02444
  Beta virt. eigenvalues --    5.04816   5.06545   5.07104   5.09028   5.11043
  Beta virt. eigenvalues --    5.12742   5.18441   5.22365   5.23484   5.25912
  Beta virt. eigenvalues --    5.29997   5.30746   5.31935   5.34353   5.34667
  Beta virt. eigenvalues --    5.36608   5.39698   5.41116   5.41575   5.42714
  Beta virt. eigenvalues --    5.47926   5.48362   5.49386   5.51191   5.54863
  Beta virt. eigenvalues --    5.58570   5.63637   5.65387   5.65865   5.66836
  Beta virt. eigenvalues --    5.68531   5.69256   5.73891   5.78647   5.80163
  Beta virt. eigenvalues --    5.89920   5.94372   5.97086   6.03424   6.05515
  Beta virt. eigenvalues --    6.07120   6.09012   6.09705   6.11150   6.19197
  Beta virt. eigenvalues --    6.25954   6.34034   6.38683   6.43970   6.65060
  Beta virt. eigenvalues --    6.77328   6.78550   6.84747   6.98054   7.06000
  Beta virt. eigenvalues --    7.08542   7.22202   7.42559   7.46478   7.60515
  Beta virt. eigenvalues --    7.73904   9.91862  10.60470  12.58827  12.89330
  Beta virt. eigenvalues --   13.28619  13.41307  13.70711
          Condensed to atoms (all electrons):
               1          2          3          4          5          6
     1  C    4.578045   0.389432   0.401814   0.408823   0.312694  -0.038756
     2  H    0.389432   0.703758  -0.036549  -0.065144  -0.049189  -0.005571
     3  H    0.401814  -0.036549   0.586356  -0.029596  -0.025930   0.006629
     4  H    0.408823  -0.065144  -0.029596   0.639716  -0.043245   0.004998
     5  O    0.312694  -0.049189  -0.025930  -0.043245   7.943579   0.070397
     6  O   -0.038756  -0.005571   0.006629   0.004998   0.070397   8.059501
     7  H    0.004160   0.004261  -0.001186   0.001071  -0.029890   0.201564
     8  C   -0.003246   0.000866   0.000274  -0.000581   0.005252  -0.083588
     9  C   -0.000493  -0.000725   0.000093   0.000038   0.000258   0.006661
    10  H    0.000017  -0.002402  -0.000102   0.000346   0.004290  -0.001532
    11  H    0.000038  -0.000127   0.000004   0.000005   0.000419   0.000731
    12  C   -0.000015   0.000177   0.000008  -0.000011  -0.000024   0.000418
    13  H   -0.000234  -0.001380   0.000070   0.000286   0.000208   0.001390
    14  H    0.000075   0.000102  -0.000006  -0.000009  -0.000079   0.000779
    15  C   -0.000003  -0.000025   0.000000   0.000001   0.000001   0.000004
    16  H    0.000000  -0.000003   0.000000   0.000000   0.000001   0.000005
    17  H   -0.000001   0.000053   0.000000  -0.000003  -0.000009   0.000011
    18  H   -0.000000   0.000000   0.000000  -0.000000  -0.000000   0.000000
    19  H    0.000000   0.000005  -0.000000  -0.000000  -0.000000  -0.000002
    20  H   -0.000000  -0.000001   0.000000  -0.000000   0.000000  -0.000001
               7          8          9         10         11         12
     1  C    0.004160  -0.003246  -0.000493   0.000017   0.000038  -0.000015
     2  H    0.004261   0.000866  -0.000725  -0.002402  -0.000127   0.000177
     3  H   -0.001186   0.000274   0.000093  -0.000102   0.000004   0.000008
     4  H    0.001071  -0.000581   0.000038   0.000346   0.000005  -0.000011
     5  O   -0.029890   0.005252   0.000258   0.004290   0.000419  -0.000024
     6  O    0.201564  -0.083588   0.006661  -0.001532   0.000731   0.000418
     7  H    0.414881   0.213765  -0.009292  -0.006170  -0.007628   0.000273
     8  C    0.213765   5.163751   0.325491   0.398701   0.403354  -0.048305
     9  C   -0.009292   0.325491   4.891263  -0.037763  -0.033276   0.314816
    10  H   -0.006170   0.398701  -0.037763   0.550568  -0.027073  -0.004357
    11  H   -0.007628   0.403354  -0.033276  -0.027073   0.539026  -0.003012
    12  C    0.000273  -0.048305   0.314816  -0.004357  -0.003012   4.916214
    13  H   -0.002932  -0.037607   0.412122  -0.004580   0.006211  -0.037159
    14  H   -0.001286  -0.033962   0.411510   0.006276  -0.004464  -0.037411
    15  C   -0.000103   0.005685  -0.049100  -0.000096  -0.000014   0.341023
    16  H   -0.000133  -0.002931  -0.037133  -0.000043   0.002528   0.414011
    17  H   -0.000074  -0.001661  -0.036858   0.002254  -0.000050   0.412169
    18  H    0.000002  -0.000374   0.006970   0.000000   0.000004  -0.033656
    19  H    0.000002   0.000012  -0.004321   0.000006  -0.000011  -0.037472
    20  H   -0.000006   0.000036  -0.004146  -0.000011   0.000013  -0.037312
              13         14         15         16         17         18
     1  C   -0.000234   0.000075  -0.000003   0.000000  -0.000001  -0.000000
     2  H   -0.001380   0.000102  -0.000025  -0.000003   0.000053   0.000000
     3  H    0.000070  -0.000006   0.000000   0.000000   0.000000   0.000000
     4  H    0.000286  -0.000009   0.000001   0.000000  -0.000003  -0.000000
     5  O    0.000208  -0.000079   0.000001   0.000001  -0.000009  -0.000000
     6  O    0.001390   0.000779   0.000004   0.000005   0.000011   0.000000
     7  H   -0.002932  -0.001286  -0.000103  -0.000133  -0.000074   0.000002
     8  C   -0.037607  -0.033962   0.005685  -0.002931  -0.001661  -0.000374
     9  C    0.412122   0.411510  -0.049100  -0.037133  -0.036858   0.006970
    10  H   -0.004580   0.006276  -0.000096  -0.000043   0.002254   0.000000
    11  H    0.006211  -0.004464  -0.000014   0.002528  -0.000050   0.000004
    12  C   -0.037159  -0.037411   0.341023   0.414011   0.412169  -0.033656
    13  H    0.596568  -0.033263  -0.002815   0.007728  -0.005880  -0.000103
    14  H   -0.033263   0.587708  -0.003842  -0.005731   0.007622  -0.000116
    15  C   -0.002815  -0.003842   4.849420  -0.033873  -0.034803   0.412956
    16  H    0.007728  -0.005731  -0.033873   0.601021  -0.037371  -0.004883
    17  H   -0.005880   0.007622  -0.034803  -0.037371   0.604627  -0.004914
    18  H   -0.000103  -0.000116   0.412956  -0.004883  -0.004914   0.579556
    19  H    0.003270  -0.000282   0.410376   0.007306  -0.005315  -0.030645
    20  H   -0.000344   0.003180   0.410752  -0.005286   0.007356  -0.030337
              19         20
     1  C    0.000000  -0.000000
     2  H    0.000005  -0.000001
     3  H   -0.000000   0.000000
     4  H   -0.000000  -0.000000
     5  O   -0.000000   0.000000
     6  O   -0.000002  -0.000001
     7  H    0.000002  -0.000006
     8  C    0.000012   0.000036
     9  C   -0.004321  -0.004146
    10  H    0.000006  -0.000011
    11  H   -0.000011   0.000013
    12  C   -0.037472  -0.037312
    13  H    0.003270  -0.000344
    14  H   -0.000282   0.003180
    15  C    0.410376   0.410752
    16  H    0.007306  -0.005286
    17  H   -0.005315   0.007356
    18  H   -0.030645  -0.030337
    19  H    0.596604  -0.033251
    20  H   -0.033251   0.593814
          Atomic-Atomic Spin Densities.
               1          2          3          4          5          6
     1  C   -0.004419   0.002507   0.000376  -0.002469   0.001449  -0.002987
     2  H    0.002507   0.003853  -0.000491  -0.001815  -0.001159   0.004198
     3  H    0.000376  -0.000491  -0.001869   0.000915   0.000085  -0.000181
     4  H   -0.002469  -0.001815   0.000915   0.004461  -0.000727  -0.000423
     5  O    0.001449  -0.001159   0.000085  -0.000727   0.045601  -0.039857
     6  O   -0.002987   0.004198  -0.000181  -0.000423  -0.039857   0.579566
     7  H    0.001000  -0.003336   0.000105   0.001398   0.009644  -0.050463
     8  C    0.001352  -0.004750   0.000085   0.001266   0.010922  -0.088110
     9  C   -0.000142   0.000742  -0.000012  -0.000186  -0.000476   0.004856
    10  H   -0.000377   0.000896  -0.000011  -0.000115  -0.001233   0.002633
    11  H   -0.000041   0.000130  -0.000002  -0.000023  -0.000342   0.002659
    12  C    0.000023  -0.000148  -0.000000   0.000011   0.000023  -0.000356
    13  H   -0.000079   0.000664  -0.000009  -0.000122  -0.000142   0.000855
    14  H   -0.000008   0.000094  -0.000001  -0.000033  -0.000044   0.000953
    15  C   -0.000001   0.000015  -0.000000  -0.000001  -0.000001   0.000012
    16  H   -0.000000   0.000003  -0.000000  -0.000000  -0.000001   0.000012
    17  H   -0.000002   0.000020  -0.000000  -0.000001  -0.000004   0.000023
    18  H    0.000000  -0.000001   0.000000   0.000000   0.000000  -0.000000
    19  H    0.000000  -0.000000   0.000000   0.000000   0.000000   0.000000
    20  H    0.000000   0.000000   0.000000  -0.000000  -0.000000   0.000000
               7          8          9         10         11         12
     1  C    0.001000   0.001352  -0.000142  -0.000377  -0.000041   0.000023
     2  H   -0.003336  -0.004750   0.000742   0.000896   0.000130  -0.000148
     3  H    0.000105   0.000085  -0.000012  -0.000011  -0.000002  -0.000000
     4  H    0.001398   0.001266  -0.000186  -0.000115  -0.000023   0.000011
     5  O    0.009644   0.010922  -0.000476  -0.001233  -0.000342   0.000023
     6  O   -0.050463  -0.088110   0.004856   0.002633   0.002659  -0.000356
     7  H   -0.095786   0.058092  -0.000427   0.003623   0.001091   0.000053
     8  C    0.058092   0.715439  -0.031359   0.006902   0.004080  -0.015243
     9  C   -0.000427  -0.031359  -0.029459  -0.001028  -0.000225   0.021503
    10  H    0.003623   0.006902  -0.001028  -0.028540   0.002651  -0.000410
    11  H    0.001091   0.004080  -0.000225   0.002651  -0.023704  -0.001209
    12  C    0.000053  -0.015243   0.021503  -0.000410  -0.001209   0.037603
    13  H   -0.000296  -0.003108   0.000943   0.000822   0.000090  -0.003523
    14  H   -0.000572  -0.003965   0.001323   0.000005   0.001028  -0.003196
    15  C   -0.000032   0.001824  -0.004083   0.000105   0.000139  -0.003662
    16  H   -0.000004   0.000618   0.000174   0.000068   0.000081  -0.000387
    17  H   -0.000060   0.001427  -0.000382   0.000164   0.000178  -0.001163
    18  H    0.000001  -0.000144   0.000348  -0.000007  -0.000011   0.000631
    19  H   -0.000001   0.000013  -0.000039   0.000003   0.000001   0.000102
    20  H   -0.000000   0.000019  -0.000024   0.000000   0.000003   0.000108
              13         14         15         16         17         18
     1  C   -0.000079  -0.000008  -0.000001  -0.000000  -0.000002   0.000000
     2  H    0.000664   0.000094   0.000015   0.000003   0.000020  -0.000001
     3  H   -0.000009  -0.000001  -0.000000  -0.000000  -0.000000   0.000000
     4  H   -0.000122  -0.000033  -0.000001  -0.000000  -0.000001   0.000000
     5  O   -0.000142  -0.000044  -0.000001  -0.000001  -0.000004   0.000000
     6  O    0.000855   0.000953   0.000012   0.000012   0.000023  -0.000000
     7  H   -0.000296  -0.000572  -0.000032  -0.000004  -0.000060   0.000001
     8  C   -0.003108  -0.003965   0.001824   0.000618   0.001427  -0.000144
     9  C    0.000943   0.001323  -0.004083   0.000174  -0.000382   0.000348
    10  H    0.000822   0.000005   0.000105   0.000068   0.000164  -0.000007
    11  H    0.000090   0.001028   0.000139   0.000081   0.000178  -0.000011
    12  C   -0.003523  -0.003196  -0.003662  -0.000387  -0.001163   0.000631
    13  H    0.006432   0.001231   0.000889   0.000057   0.000232  -0.000079
    14  H    0.001231   0.007573   0.000978   0.000120   0.000123  -0.000072
    15  C    0.000889   0.000978   0.012252   0.000487   0.000852  -0.000941
    16  H    0.000057   0.000120   0.000487  -0.002335   0.000607  -0.000151
    17  H    0.000232   0.000123   0.000852   0.000607  -0.002008  -0.000235
    18  H   -0.000079  -0.000072  -0.000941  -0.000151  -0.000235   0.002201
    19  H    0.000025  -0.000000   0.000070  -0.000022   0.000030  -0.000030
    20  H    0.000010   0.000025   0.000041   0.000029  -0.000018  -0.000049
              19         20
     1  C    0.000000   0.000000
     2  H   -0.000000   0.000000
     3  H    0.000000   0.000000
     4  H    0.000000  -0.000000
     5  O    0.000000  -0.000000
     6  O    0.000000   0.000000
     7  H   -0.000001  -0.000000
     8  C    0.000013   0.000019
     9  C   -0.000039  -0.000024
    10  H    0.000003   0.000000
    11  H    0.000001   0.000003
    12  C    0.000102   0.000108
    13  H    0.000025   0.000010
    14  H   -0.000000   0.000025
    15  C    0.000070   0.000041
    16  H   -0.000022   0.000029
    17  H    0.000030  -0.000018
    18  H   -0.000030  -0.000049
    19  H   -0.000551   0.000002
    20  H    0.000002  -0.000526
 Mulliken charges and spin densities:
               1          2
     1  C   -0.052350  -0.003817
     2  H    0.062464   0.001422
     3  H    0.098122  -0.001009
     4  H    0.083307   0.002136
     5  O   -0.188731   0.023738
     6  O   -0.223640   0.413389
     7  H    0.218721  -0.075972
     8  C   -0.304932   0.655362
     9  C   -0.156112  -0.037953
    10  H    0.121670  -0.013849
    11  H    0.123322  -0.013425
    12  C   -0.160373   0.030761
    13  H    0.098443   0.004892
    14  H    0.103199   0.005563
    15  C   -0.305543   0.008944
    16  H    0.094785  -0.000645
    17  H    0.092847  -0.000218
    18  H    0.105541   0.001462
    19  H    0.093718  -0.000398
    20  H    0.095543  -0.000381
 Sum of Mulliken charges =  -0.00000   1.00000
 Mulliken charges and spin densities with hydrogens summed into heavy atoms:
               1          2
     1  C    0.191542  -0.001269
     5  O   -0.188731   0.023738
     6  O   -0.004918   0.337416
     8  C   -0.059940   0.628088
     9  C    0.045530  -0.027498
    12  C    0.027259   0.029898
    15  C   -0.010741   0.009627
 APT charges:
               1
     1  C    0.424368
     2  H   -0.041575
     3  H   -0.007873
     4  H   -0.028033
     5  O   -0.471629
     6  O    0.225023
     7  H   -0.383504
     8  C    0.473771
     9  C   -0.077000
    10  H   -0.060386
    11  H   -0.049711
    12  C    0.164598
    13  H   -0.027470
    14  H   -0.021332
    15  C    0.048917
    16  H   -0.042357
    17  H   -0.042708
    18  H   -0.039150
    19  H   -0.021893
    20  H   -0.022054
 Sum of APT charges =  -0.00000
 APT charges with hydrogens summed into heavy atoms:
               1
     1  C    0.346886
     5  O   -0.471629
     6  O   -0.158481
     8  C    0.363674
     9  C   -0.125802
    12  C    0.079532
    15  C   -0.034180
 Electronic spatial extent (au):  <R**2>=           1606.8163
 Charge=              0.0000 electrons
 Dipole moment (field-independent basis, Debye):
    X=              2.1485    Y=              1.5272    Z=             -0.9991  Tot=              2.8189
 Quadrupole moment (field-independent basis, Debye-Ang):
   XX=            -49.5462   YY=            -44.5222   ZZ=            -46.7616
   XY=             -6.5871   XZ=              1.9047   YZ=             -0.1408
 Traceless Quadrupole moment (field-independent basis, Debye-Ang):
   XX=             -2.6029   YY=              2.4211   ZZ=              0.1818
   XY=             -6.5871   XZ=              1.9047   YZ=             -0.1408
 Octapole moment (field-independent basis, Debye-Ang**2):
  XXX=            -11.5375  YYY=             -2.9233  ZZZ=              1.0066  XYY=             -9.2703
  XXY=             16.0643  XXZ=             -3.8971  XZZ=             -5.8687  YZZ=              0.2505
  YYZ=             -0.1589  XYZ=             -0.9814
 Hexadecapole moment (field-independent basis, Debye-Ang**3):
 XXXX=          -1756.6118 YYYY=           -234.7458 ZZZZ=           -127.5175 XXXY=            -56.6358
 XXXZ=              1.0137 YYYX=             -3.6877 YYYZ=             -1.9914 ZZZX=              1.2276
 ZZZY=             -3.3368 XXYY=           -326.2594 XXZZ=           -311.6901 YYZZ=            -63.6931
 XXYZ=             -6.0141 YYXZ=              1.0437 ZZXY=             -3.3581
 N-N= 3.104766425717D+02 E-N=-1.434492525480D+03  KE= 3.464990699445D+02
  Exact polarizability: 122.789  -8.600  71.999  -3.910   0.829  66.959
 Approx polarizability:  98.061  -5.005  78.617  -2.249  -1.718  80.303
                          Isotropic Fermi Contact Couplings
        Atom                 a.u.       MegaHertz       Gauss      10(-4) cm-1
     1  C(13)             -0.00351      -3.94376      -1.40723      -1.31550
     2  H(1)               0.00216       9.67039       3.45064       3.22569
     3  H(1)              -0.00012      -0.52655      -0.18789      -0.17564
     4  H(1)               0.00051       2.28408       0.81502       0.76189
     5  O(17)              0.01406      -8.52497      -3.04192      -2.84362
     6  O(17)              0.04469     -27.09151      -9.66692      -9.03675
     7  H(1)              -0.02340    -104.59715     -37.32286     -34.88985
     8  C(13)              0.09387     105.52327      37.65333      35.19877
     9  C(13)             -0.01313     -14.76563      -5.26875      -4.92529
    10  H(1)              -0.00418     -18.70507      -6.67443      -6.23934
    11  H(1)              -0.00428     -19.13525      -6.82793      -6.38283
    12  C(13)              0.03650      41.02938      14.64030      13.68593
    13  H(1)               0.00225      10.05731       3.58870       3.35476
    14  H(1)               0.00335      14.95599       5.33667       4.98878
    15  C(13)              0.00399       4.48245       1.59945       1.49518
    16  H(1)              -0.00051      -2.26971      -0.80989      -0.75709
    17  H(1)              -0.00054      -2.43058      -0.86729      -0.81076
    18  H(1)               0.00080       3.58920       1.28072       1.19723
    19  H(1)              -0.00014      -0.61359      -0.21895      -0.20467
    20  H(1)              -0.00014      -0.63454      -0.22642      -0.21166
 --------------------------------------------------------
       Center         ----  Spin Dipole Couplings  ----
                      3XX-RR        3YY-RR        3ZZ-RR
 --------------------------------------------------------
     1   Atom       -0.001038      0.006597     -0.005560
     2   Atom       -0.002948      0.006872     -0.003924
     3   Atom       -0.000361      0.002082     -0.001721
     4   Atom       -0.001828      0.006375     -0.004547
     5   Atom        0.262433     -0.158417     -0.104016
     6   Atom        0.666245     -0.889617      0.223372
     7   Atom        0.160740     -0.116142     -0.044598
     8   Atom        0.407152     -0.348474     -0.058678
     9   Atom        0.023894     -0.010227     -0.013667
    10   Atom       -0.000305     -0.037857      0.038162
    11   Atom       -0.012920      0.043620     -0.030700
    12   Atom        0.052016     -0.027737     -0.024278
    13   Atom       -0.001669      0.007956     -0.006287
    14   Atom        0.002592     -0.006643      0.004051
    15   Atom        0.006367     -0.001084     -0.005284
    16   Atom        0.007815     -0.001295     -0.006521
    17   Atom        0.002708     -0.004659      0.001951
    18   Atom        0.002353     -0.001230     -0.001123
    19   Atom        0.000778      0.001419     -0.002196
    20   Atom        0.001470     -0.001749      0.000278
 --------------------------------------------------------
                        XY            XZ            YZ
 --------------------------------------------------------
     1   Atom       -0.004188      0.002025     -0.003901
     2   Atom       -0.002077     -0.000443     -0.004372
     3   Atom       -0.003757      0.001554     -0.002900
     4   Atom       -0.004953     -0.000423      0.000900
     5   Atom       -0.044120     -0.259381      0.028418
     6   Atom       -0.129972     -1.318241      0.111125
     7   Atom       -0.045909     -0.146452      0.022301
     8   Atom       -0.124471     -0.489621      0.077229
     9   Atom        0.015781     -0.001631      0.002974
    10   Atom       -0.015649      0.008442     -0.019937
    11   Atom       -0.013657     -0.019555     -0.010283
    12   Atom        0.009478     -0.019720     -0.002640
    13   Atom        0.007611      0.000507      0.004000
    14   Atom        0.002858      0.008775      0.004267
    15   Atom        0.010478      0.006913      0.004828
    16   Atom       -0.004200     -0.000127      0.000912
    17   Atom        0.004424     -0.005235     -0.002715
    18   Atom        0.001006     -0.000501      0.000621
    19   Atom        0.001995      0.000478      0.000695
    20   Atom        0.001471      0.001814      0.000533
 --------------------------------------------------------


 ---------------------------------------------------------------------------------
              Anisotropic Spin Dipole Couplings in Principal Axis System
 ---------------------------------------------------------------------------------

       Atom             a.u.   MegaHertz   Gauss  10(-4) cm-1        Axes

              Baa    -0.0068    -0.918    -0.327    -0.306 -0.1726  0.2246  0.9590
     1 C(13)  Bbb    -0.0029    -0.385    -0.137    -0.128  0.9028  0.4253  0.0629
              Bcc     0.0097     1.303     0.465     0.435 -0.3938  0.8767 -0.2762
 
              Baa    -0.0059    -3.160    -1.128    -1.054  0.3748  0.3537  0.8570
     2 H(1)   Bbb    -0.0028    -1.484    -0.530    -0.495  0.9141  0.0132 -0.4052
              Bcc     0.0087     4.644     1.657     1.549 -0.1546  0.9353 -0.3184
 
              Baa    -0.0035    -1.865    -0.665    -0.622  0.4309  0.6275  0.6484
     3 H(1)   Bbb    -0.0027    -1.424    -0.508    -0.475  0.7319  0.1773 -0.6579
              Bcc     0.0062     3.288     1.173     1.097 -0.5278  0.7581 -0.3829
 
              Baa    -0.0046    -2.466    -0.880    -0.823  0.0313 -0.0675  0.9972
     4 H(1)   Bbb    -0.0042    -2.218    -0.791    -0.740  0.9049  0.4255  0.0004
              Bcc     0.0088     4.684     1.671     1.562 -0.4244  0.9024  0.0744
 
              Baa    -0.2387    17.271     6.163     5.761  0.4542 -0.0649  0.8885
     5 O(17)  Bbb    -0.1630    11.792     4.208     3.934  0.1123  0.9936  0.0152
              Bcc     0.4017   -29.063   -10.370    -9.694  0.8838 -0.0929 -0.4586
 
              Baa    -0.9006    65.167    23.253    21.738 -0.0171  0.9928 -0.1183
     6 O(17)  Bbb    -0.8918    64.531    23.026    21.525  0.6475  0.1012  0.7553
              Bcc     1.7924  -129.698   -46.280   -43.263  0.7619 -0.0636 -0.6446
 
              Baa    -0.1240   -66.146   -23.602   -22.064  0.2981  0.9078  0.2950
     7 H(1)   Bbb    -0.1202   -64.122   -22.880   -21.389  0.3730 -0.3953  0.8394
              Bcc     0.2442   130.267    46.483    43.453  0.8786 -0.1402 -0.4565
 
              Baa    -0.3693   -49.555   -17.682   -16.530  0.4380  0.7433  0.5057
     8 C(13)  Bbb    -0.3669   -49.238   -17.569   -16.424  0.3256 -0.6555  0.6814
              Bcc     0.7362    98.793    35.252    32.954  0.8379 -0.1338 -0.5291
 
              Baa    -0.0187    -2.505    -0.894    -0.836 -0.3072  0.7708 -0.5582
     9 C(13)  Bbb    -0.0114    -1.531    -0.546    -0.511 -0.1955  0.5230  0.8296
              Bcc     0.0301     4.036     1.440     1.346  0.9314  0.3639 -0.0100
 
              Baa    -0.0466   -24.889    -8.881    -8.302  0.2822  0.9398  0.1928
    10 H(1)   Bbb     0.0004     0.202     0.072     0.067  0.9239 -0.2121 -0.3184
              Bcc     0.0463    24.687     8.809     8.235  0.2583 -0.2680  0.9281
 
              Baa    -0.0462   -24.640    -8.792    -8.219  0.5519  0.1772  0.8149
    11 H(1)   Bbb    -0.0010    -0.544    -0.194    -0.181  0.8106  0.1157 -0.5741
              Bcc     0.0472    25.183     8.986     8.400 -0.1961  0.9773 -0.0798
 
              Baa    -0.0293    -3.933    -1.403    -1.312  0.1261  0.5851  0.8011
    12 C(13)  Bbb    -0.0286    -3.842    -1.371    -1.282 -0.2289  0.8029 -0.5504
              Bcc     0.0579     7.775     2.774     2.593  0.9652  0.1140 -0.2352
 
              Baa    -0.0080    -4.274    -1.525    -1.426  0.4194 -0.4036  0.8132
    13 H(1)   Bbb    -0.0049    -2.601    -0.928    -0.868  0.7827 -0.2931 -0.5491
              Bcc     0.0129     6.875     2.453     2.293  0.4600  0.8667  0.1930
 
              Baa    -0.0081    -4.346    -1.551    -1.450  0.0446  0.9325 -0.3583
    14 H(1)   Bbb    -0.0053    -2.810    -1.003    -0.937  0.7596 -0.2646 -0.5941
              Bcc     0.0134     7.157     2.554     2.387  0.6488  0.2457  0.7202
 
              Baa    -0.0085    -1.143    -0.408    -0.381 -0.6106  0.4278  0.6664
    15 C(13)  Bbb    -0.0084    -1.133    -0.404    -0.378 -0.2074  0.7258 -0.6559
              Bcc     0.0170     2.276     0.812     0.759  0.7643  0.5387  0.3545
 
              Baa    -0.0067    -3.577    -1.276    -1.193 -0.0504 -0.2039  0.9777
    16 H(1)   Bbb    -0.0028    -1.475    -0.526    -0.492  0.3630  0.9082  0.2081
              Bcc     0.0095     5.052     1.803     1.685  0.9304 -0.3654 -0.0282
 
              Baa    -0.0067    -3.597    -1.284    -1.200 -0.4046  0.9136  0.0417
    17 H(1)   Bbb    -0.0027    -1.433    -0.511    -0.478  0.5798  0.2210  0.7842
              Bcc     0.0094     5.030     1.795     1.678  0.7072  0.3414 -0.6191
 
              Baa    -0.0021    -1.103    -0.394    -0.368 -0.2403  0.7477 -0.6190
    18 H(1)   Bbb    -0.0006    -0.308    -0.110    -0.103 -0.0796  0.6204  0.7802
              Bcc     0.0026     1.412     0.504     0.471  0.9674  0.2368 -0.0896
 
              Baa    -0.0023    -1.244    -0.444    -0.415 -0.0522 -0.1551  0.9865
    19 H(1)   Bbb    -0.0009    -0.489    -0.175    -0.163  0.7678 -0.6379 -0.0597
              Bcc     0.0032     1.733     0.618     0.578  0.6386  0.7543  0.1524
 
              Baa    -0.0023    -1.245    -0.444    -0.415 -0.3956  0.9142  0.0883
    20 H(1)   Bbb    -0.0009    -0.484    -0.173    -0.161 -0.4654 -0.2824  0.8389
              Bcc     0.0032     1.729     0.617     0.577  0.7918  0.2907  0.5371
 

 ---------------------------------------------------------------------------------

 Calling FoFJK, ICntrl=  10100127 FMM=F ISym2X=0 I1Cent= 0 IOpClX= 1 NMat=1 NMatS=1 NMatT=0.
 -------------------------------------------------------------------
 Center     Atomic                   Forces (Hartrees/Bohr)
 Number     Number              X              Y              Z
 -------------------------------------------------------------------
      1        6           0.000000569    0.000000204   -0.000000010
      2        1           0.000000345   -0.000000236   -0.000000110
      3        1          -0.000000316    0.000000219   -0.000000201
      4        1          -0.000000034   -0.000000042    0.000000268
      5        8          -0.000001837    0.000000776   -0.000002087
      6        8           0.000001155   -0.000001661    0.000003105
      7        1           0.000000935   -0.000000489   -0.000000902
      8        6          -0.000000822    0.000001008    0.000000546
      9        6          -0.000000085   -0.000000435   -0.000000608
     10        1          -0.000000597    0.000000602   -0.000000015
     11        1           0.000000578   -0.000000323   -0.000000189
     12        6           0.000000354   -0.000000181    0.000000234
     13        1           0.000000020    0.000000289   -0.000000232
     14        1          -0.000000153   -0.000000022    0.000000351
     15        6           0.000000322    0.000000050   -0.000000690
     16        1          -0.000000089    0.000000080   -0.000000088
     17        1          -0.000000038    0.000000077   -0.000000000
     18        1          -0.000000248    0.000000043    0.000000125
     19        1          -0.000000067    0.000000235    0.000000061
     20        1           0.000000007   -0.000000194    0.000000444
 -------------------------------------------------------------------
 Cartesian Forces:  Max     0.000003105 RMS     0.000000708
 FormGI is forming the generalized inverse of G from B-inverse, IUseBI=4.

 GradGradGradGradGradGradGradGradGradGradGradGradGradGradGradGradGradGrad
 Berny optimization.
 Internal  Forces:  Max     0.000002924 RMS     0.000000625
 Search for a saddle point.
 Step number   1 out of a maximum of  120 on scan point     1 out of    37
 All quantities printed in internal units (Hartrees-Bohrs-Radians)
 Swapping is turned off.
 Second derivative matrix not updated -- analytic derivatives used.
 ITU=  0
     Eigenvalues ---   -0.07477   0.00149   0.00219   0.00284   0.00639
     Eigenvalues ---    0.01542   0.02092   0.02738   0.03184   0.03262
     Eigenvalues ---    0.03411   0.03796   0.03839   0.03941   0.04590
     Eigenvalues ---    0.04602   0.06585   0.06959   0.07149   0.08497
     Eigenvalues ---    0.08545   0.09422   0.11390   0.11445   0.12208
     Eigenvalues ---    0.12964   0.13409   0.13993   0.15127   0.15975
     Eigenvalues ---    0.16373   0.16643   0.17882   0.18486   0.21511
     Eigenvalues ---    0.25549   0.27137   0.29864   0.31181   0.31949
     Eigenvalues ---    0.32869   0.33065   0.33465   0.33705   0.33779
     Eigenvalues ---    0.33902   0.34142   0.34437   0.34687   0.34724
     Eigenvalues ---    0.35030   0.35542   0.405781000.000001000.00000
     Eigenvalues --- 1000.000001000.000001000.000001000.000001000.00000
     Eigenvalues --- 1000.000001000.000001000.000001000.000001000.00000
     Eigenvalues --- 1000.000001000.000001000.000001000.000001000.00000
     Eigenvalues --- 1000.000001000.000001000.000001000.000001000.00000
     Eigenvalues --- 1000.000001000.000001000.000001000.000001000.00000
     Eigenvalues --- 1000.000001000.000001000.000001000.000001000.00000
 Eigenvectors required to have negative eigenvalues:
                          R7        R6        R5        A8        D10
   1                    0.68546  -0.66567   0.15392  -0.09356  -0.08163
                          D14       D9        D12       A10       D11
   1                    0.07655  -0.07543   0.06970  -0.06859  -0.06858
 RFO step:  Lambda0=1.152265783D-12 Lambda= 0.00000000D+00.
 Linear search not attempted -- option 19 set.
 Iteration  1 RMS(Cart)=  0.00009314 RMS(Int)=  0.00000000
 Iteration  2 RMS(Cart)=  0.00000000 RMS(Int)=  0.00000000
 Iteration  1 RMS(Cart)=  0.00000000 RMS(Int)=  0.00000000
 Variable       Old X    -DE/DX   Delta X   Delta X   Delta X     New X
                                 (Linear)    (Quad)   (Total)
    R1        2.06281   0.00000   0.00000   0.00000   0.00000   2.06281
    R2        2.05626   0.00000   0.00000   0.00000   0.00000   2.05626
    R3        2.05743   0.00000   0.00000   0.00000   0.00000   2.05743
    R4        2.68218   0.00000   0.00000  -0.00000  -0.00000   2.68218
    R5        2.66258   0.00000   0.00000   0.00001   0.00001   2.66260
    R6        2.19890   0.00000   0.00000  -0.00000  -0.00000   2.19890
    R7        2.57151  -0.00000   0.00000   0.00000   0.00000   2.57151
    R8        2.83584  -0.00000   0.00000  -0.00000  -0.00000   2.83583
    R9        2.05426   0.00000   0.00000   0.00000   0.00000   2.05426
   R10        2.05283   0.00000   0.00000   0.00000   0.00000   2.05283
   R11        2.90342   0.00000   0.00000   0.00000   0.00000   2.90342
   R12        2.06329   0.00000   0.00000   0.00000   0.00000   2.06329
   R13        2.06342   0.00000   0.00000   0.00000   0.00000   2.06342
   R14        2.88215   0.00000   0.00000  -0.00000  -0.00000   2.88215
   R15        2.06274  -0.00000   0.00000  -0.00000  -0.00000   2.06274
   R16        2.06297  -0.00000   0.00000   0.00000   0.00000   2.06297
   R17        2.05804  -0.00000   0.00000  -0.00000  -0.00000   2.05804
   R18        2.05995   0.00000   0.00000   0.00000   0.00000   2.05995
   R19        2.05979   0.00000   0.00000   0.00000   0.00000   2.05979
    A1        1.91627   0.00000   0.00000  -0.00000  -0.00000   1.91626
    A2        1.91595   0.00000   0.00000   0.00000   0.00000   1.91596
    A3        1.93597  -0.00000   0.00000  -0.00000  -0.00000   1.93597
    A4        1.92440   0.00000   0.00000   0.00000   0.00000   1.92440
    A5        1.83759   0.00000   0.00000   0.00000   0.00000   1.83760
    A6        1.93247   0.00000   0.00000   0.00000   0.00000   1.93247
    A7        1.88021  -0.00000   0.00000  -0.00000  -0.00000   1.88021
    A8        1.82235  -0.00000   0.00000  -0.00002  -0.00002   1.82233
    A9        1.87774   0.00000   0.00000  -0.00000  -0.00000   1.87774
   A10        1.74833  -0.00000   0.00000  -0.00001  -0.00001   1.74832
   A11        1.76994   0.00000   0.00000   0.00000   0.00000   1.76995
   A12        2.03021  -0.00000   0.00000   0.00001   0.00001   2.03022
   A13        2.02444  -0.00000   0.00000  -0.00001  -0.00001   2.02443
   A14        1.96639   0.00000   0.00000   0.00000   0.00000   1.96640
   A15        1.96228   0.00000   0.00000   0.00000   0.00000   1.96228
   A16        1.92068  -0.00000   0.00000   0.00000   0.00000   1.92068
   A17        1.91831  -0.00000   0.00000  -0.00000  -0.00000   1.91831
   A18        1.89984  -0.00000   0.00000   0.00000   0.00000   1.89984
   A19        1.89856  -0.00000   0.00000  -0.00000  -0.00000   1.89856
   A20        1.86124   0.00000   0.00000  -0.00000  -0.00000   1.86124
   A21        1.95847   0.00000   0.00000   0.00000   0.00000   1.95848
   A22        1.90419  -0.00000   0.00000  -0.00000  -0.00000   1.90419
   A23        1.90474  -0.00000   0.00000   0.00000   0.00000   1.90474
   A24        1.91771   0.00000   0.00000   0.00000   0.00000   1.91771
   A25        1.91790  -0.00000   0.00000  -0.00000  -0.00000   1.91790
   A26        1.85802   0.00000   0.00000  -0.00000  -0.00000   1.85802
   A27        1.94283   0.00000   0.00000   0.00000   0.00000   1.94283
   A28        1.93712   0.00000   0.00000   0.00000   0.00000   1.93712
   A29        1.93677  -0.00000   0.00000  -0.00000  -0.00000   1.93677
   A30        1.88239  -0.00000   0.00000   0.00000   0.00000   1.88239
   A31        1.88265   0.00000   0.00000   0.00000   0.00000   1.88265
   A32        1.87954   0.00000   0.00000  -0.00000  -0.00000   1.87954
   A33        3.10634  -0.00000   0.00000  -0.00005  -0.00005   3.10629
   A34        3.12281  -0.00000   0.00000  -0.00000  -0.00000   3.12281
    D1        1.15066   0.00000   0.00000   0.00001   0.00001   1.15067
    D2       -3.06069  -0.00000   0.00000   0.00001   0.00001  -3.06068
    D3       -0.98101   0.00000   0.00000   0.00001   0.00001  -0.98099
    D4       -1.59593   0.00000   0.00000   0.00012   0.00012  -1.59581
    D5        2.09726  -0.00000   0.00000   0.00000   0.00000   2.09726
    D6        3.12969  -0.00000   0.00000  -0.00013  -0.00013   3.12955
    D7       -1.03262  -0.00000   0.00000  -0.00013  -0.00013  -1.03275
    D8        1.01211  -0.00000   0.00000  -0.00013  -0.00013   1.01198
    D9       -1.21068  -0.00000   0.00000  -0.00014  -0.00014  -1.21083
   D10        0.91019  -0.00000   0.00000  -0.00014  -0.00014   0.91006
   D11        2.95493  -0.00000   0.00000  -0.00014  -0.00014   2.95479
   D12        1.16322  -0.00000   0.00000  -0.00014  -0.00014   1.16309
   D13       -2.99908  -0.00000   0.00000  -0.00013  -0.00013  -2.99922
   D14       -0.95435  -0.00000   0.00000  -0.00013  -0.00013  -0.95448
   D15        3.14057  -0.00000   0.00000  -0.00001  -0.00001   3.14056
   D16       -1.01313   0.00000   0.00000  -0.00001  -0.00001  -1.01314
   D17        1.01047  -0.00000   0.00000  -0.00001  -0.00001   1.01046
   D18        1.00785  -0.00000   0.00000  -0.00002  -0.00002   1.00783
   D19        3.13734   0.00000   0.00000  -0.00002  -0.00002   3.13732
   D20       -1.12225  -0.00000   0.00000  -0.00002  -0.00002  -1.12227
   D21       -1.01379  -0.00000   0.00000  -0.00002  -0.00002  -1.01381
   D22        1.11569   0.00000   0.00000  -0.00002  -0.00002   1.11568
   D23        3.13929  -0.00000   0.00000  -0.00002  -0.00002   3.13927
   D24        3.14101  -0.00000   0.00000  -0.00001  -0.00001   3.14100
   D25       -1.04527  -0.00000   0.00000  -0.00001  -0.00001  -1.04528
   D26        1.04400  -0.00000   0.00000  -0.00001  -0.00001   1.04400
   D27        1.01924  -0.00000   0.00000  -0.00001  -0.00001   1.01924
   D28        3.11615   0.00000   0.00000  -0.00001  -0.00001   3.11615
   D29       -1.07776   0.00000   0.00000  -0.00001  -0.00001  -1.07777
   D30       -1.01959  -0.00000   0.00000  -0.00001  -0.00001  -1.01959
   D31        1.07732   0.00000   0.00000  -0.00001  -0.00001   1.07732
   D32       -3.11659  -0.00000   0.00000  -0.00001  -0.00001  -3.11660
         Item               Value     Threshold  Converged?
 Maximum Force            0.000003     0.000450     YES
 RMS     Force            0.000001     0.000300     YES
 Maximum Displacement     0.000373     0.001800     YES
 RMS     Displacement     0.000093     0.001200     YES
 Predicted change in Energy=-3.929614D-10
 Optimization completed.
    -- Stationary point found.
                           ----------------------------
                           !   Optimized Parameters   !
                           ! (Angstroms and Degrees)  !
 --------------------------                            --------------------------
 ! Name  Definition              Value          Derivative Info.                !
 --------------------------------------------------------------------------------
 ! R1    R(1,2)                  1.0916         -DE/DX =    0.0                 !
 ! R2    R(1,3)                  1.0881         -DE/DX =    0.0                 !
 ! R3    R(1,4)                  1.0887         -DE/DX =    0.0                 !
 ! R4    R(1,5)                  1.4193         -DE/DX =    0.0                 !
 ! R5    R(5,6)                  1.409          -DE/DX =    0.0                 !
 ! R6    R(6,7)                  1.1636         -DE/DX =    0.0                 !
 ! R7    R(7,8)                  1.3608         -DE/DX =    0.0                 !
 ! R8    R(8,9)                  1.5007         -DE/DX =    0.0                 !
 ! R9    R(8,10)                 1.0871         -DE/DX =    0.0                 !
 ! R10   R(8,11)                 1.0863         -DE/DX =    0.0                 !
 ! R11   R(9,12)                 1.5364         -DE/DX =    0.0                 !
 ! R12   R(9,13)                 1.0918         -DE/DX =    0.0                 !
 ! R13   R(9,14)                 1.0919         -DE/DX =    0.0                 !
 ! R14   R(12,15)                1.5252         -DE/DX =    0.0                 !
 ! R15   R(12,16)                1.0916         -DE/DX =    0.0                 !
 ! R16   R(12,17)                1.0917         -DE/DX =    0.0                 !
 ! R17   R(15,18)                1.0891         -DE/DX =    0.0                 !
 ! R18   R(15,19)                1.0901         -DE/DX =    0.0                 !
 ! R19   R(15,20)                1.09           -DE/DX =    0.0                 !
 ! A1    A(2,1,3)              109.794          -DE/DX =    0.0                 !
 ! A2    A(2,1,4)              109.7761         -DE/DX =    0.0                 !
 ! A3    A(2,1,5)              110.9229         -DE/DX =    0.0                 !
[...]
    18  H    0.000001  -0.000144   0.000348  -0.000007  -0.000011   0.000632
    19  H   -0.000001   0.000013  -0.000039   0.000003   0.000001   0.000102
    20  H   -0.000000   0.000019  -0.000024   0.000000   0.000003   0.000108
              13         14         15         16         17         18
     1  C   -0.000079  -0.000008  -0.000001  -0.000000  -0.000002   0.000000
     2  H    0.000666   0.000094   0.000015   0.000003   0.000020  -0.000001
     3  H   -0.000009  -0.000001  -0.000000  -0.000000  -0.000000   0.000000
     4  H   -0.000122  -0.000033  -0.000001  -0.000000  -0.000001   0.000000
     5  O   -0.000143  -0.000044  -0.000001  -0.000001  -0.000004   0.000000
     6  O    0.000857   0.000950   0.000012   0.000012   0.000023  -0.000000
     7  H   -0.000298  -0.000572  -0.000032  -0.000004  -0.000060   0.000001
     8  C   -0.003116  -0.003956   0.001825   0.000619   0.001425  -0.000144
     9  C    0.000947   0.001317  -0.004085   0.000172  -0.000380   0.000348
    10  H    0.000822   0.000005   0.000105   0.000068   0.000163  -0.000007
    11  H    0.000091   0.001028   0.000139   0.000081   0.000178  -0.000011
    12  C   -0.003532  -0.003190  -0.003664  -0.000387  -0.001164   0.000632
    13  H    0.006457   0.001232   0.000892   0.000057   0.000233  -0.000079
    14  H    0.001232   0.007550   0.000976   0.000120   0.000123  -0.000072
    15  C    0.000892   0.000976   0.012256   0.000488   0.000852  -0.000942
    16  H    0.000057   0.000120   0.000488  -0.002336   0.000607  -0.000152
    17  H    0.000233   0.000123   0.000852   0.000607  -0.002008  -0.000235
    18  H   -0.000079  -0.000072  -0.000942  -0.000152  -0.000235   0.002201
    19  H    0.000025  -0.000000   0.000070  -0.000022   0.000030  -0.000030
    20  H    0.000010   0.000024   0.000042   0.000029  -0.000018  -0.000049
              19         20
     1  C    0.000000   0.000000
     2  H   -0.000000   0.000000
     3  H    0.000000   0.000000
     4  H    0.000000  -0.000000
     5  O    0.000000  -0.000000
     6  O    0.000000   0.000000
     7  H   -0.000001  -0.000000
     8  C    0.000013   0.000019
     9  C   -0.000039  -0.000024
    10  H    0.000003   0.000000
    11  H    0.000001   0.000003
    12  C    0.000102   0.000108
    13  H    0.000025   0.000010
    14  H   -0.000000   0.000024
    15  C    0.000070   0.000042
    16  H   -0.000022   0.000029
    17  H    0.000030  -0.000018
    18  H   -0.000030  -0.000049
    19  H   -0.000551   0.000002
    20  H    0.000002  -0.000526
 Mulliken charges and spin densities:
               1          2
     1  C   -0.052375  -0.003818
     2  H    0.062462   0.001424
     3  H    0.098132  -0.001009
     4  H    0.083324   0.002134
     5  O   -0.188732   0.023738
     6  O   -0.223620   0.413432
     7  H    0.218709  -0.075971
     8  C   -0.304952   0.655314
     9  C   -0.156114  -0.037953
    10  H    0.121672  -0.013852
    11  H    0.123336  -0.013423
    12  C   -0.160380   0.030765
    13  H    0.098455   0.004910
    14  H    0.103186   0.005544
    15  C   -0.305544   0.008945
    16  H    0.094780  -0.000645
    17  H    0.092854  -0.000218
    18  H    0.105542   0.001462
    19  H    0.093716  -0.000399
    20  H    0.095546  -0.000381
 Sum of Mulliken charges =  -0.00000   1.00000
 Mulliken charges and spin densities with hydrogens summed into heavy atoms:
               1          2
     1  C    0.191543  -0.001269
     5  O   -0.188732   0.023738
     6  O   -0.004911   0.337461
     8  C   -0.059944   0.628039
     9  C    0.045527  -0.027498
    12  C    0.027255   0.029902
    15  C   -0.010740   0.009628
 Electronic spatial extent (au):  <R**2>=           1631.7104
 Charge=             -0.0000 electrons
 Dipole moment (field-independent basis, Debye):
    X=              2.1595    Y=             -0.0420    Z=              1.8121  Tot=              2.8193
 Quadrupole moment (field-independent basis, Debye-Ang):
   XX=            -48.9857   YY=            -46.9273   ZZ=            -45.7428
   XY=              1.6282   XZ=             -7.3689   YZ=              1.1799
 Traceless Quadrupole moment (field-independent basis, Debye-Ang):
   XX=             -1.7671   YY=              0.2913   ZZ=              1.4758
   XY=              1.6282   XZ=             -7.3689   YZ=              1.1799
 Octapole moment (field-independent basis, Debye-Ang**2):
  XXX=            -15.1290  YYY=            -31.7922  ZZZ=             29.3560  XYY=             -5.6964
  XXY=            -14.2868  XXZ=             27.8057  XZZ=             -4.5197  YZZ=             -9.0684
  YYZ=             10.7083  XYZ=             -3.6770
 Hexadecapole moment (field-independent basis, Debye-Ang**3):
 XXXX=          -1678.3835 YYYY=           -225.7288 ZZZZ=           -233.3004 XXXY=            165.8621
 XXXZ=            -50.7417 YYYX=            153.5728 YYYZ=             32.9352 ZZZX=             -6.8646
 ZZZY=             25.4975 XXYY=           -327.7270 XXZZ=           -322.6164 YYZZ=            -74.2118
 XXYZ=             26.4837 YYXZ=             -6.3369 ZZXY=             48.4138
 N-N= 3.104822386818D+02 E-N=-1.434503560419D+03  KE= 3.464990694067D+02
                          Isotropic Fermi Contact Couplings
        Atom                 a.u.       MegaHertz       Gauss      10(-4) cm-1
     1  C(13)             -0.00351      -3.94468      -1.40756      -1.31580
     2  H(1)               0.00216       9.67051       3.45068       3.22574
     3  H(1)              -0.00012      -0.52574      -0.18760      -0.17537
     4  H(1)               0.00051       2.28270       0.81453       0.76143
     5  O(17)              0.01406      -8.52602      -3.04230      -2.84397
     6  O(17)              0.04468     -27.08672      -9.66522      -9.03516
     7  H(1)              -0.02340    -104.59612     -37.32250     -34.88951
     8  C(13)              0.09386     105.51982      37.65209      35.19762
     9  C(13)             -0.01313     -14.76445      -5.26832      -4.92489
    10  H(1)              -0.00419     -18.70968      -6.67608      -6.24088
    11  H(1)              -0.00428     -19.13383      -6.82743      -6.38236
    12  C(13)              0.03650      41.03421      14.64203      13.68754
    13  H(1)               0.00226      10.09509       3.60218       3.36736
    14  H(1)               0.00334      14.91290       5.32129       4.97441
    15  C(13)              0.00399       4.48293       1.59962       1.49535
    16  H(1)              -0.00051      -2.26918      -0.80970      -0.75692
    17  H(1)              -0.00054      -2.43127      -0.86754      -0.81098
    18  H(1)               0.00080       3.58958       1.28085       1.19735
    19  H(1)              -0.00014      -0.61404      -0.21910      -0.20482
    20  H(1)              -0.00014      -0.63426      -0.22632      -0.21157
 --------------------------------------------------------
       Center         ----  Spin Dipole Couplings  ----
                      3XX-RR        3YY-RR        3ZZ-RR
 --------------------------------------------------------
     1   Atom       -0.001280     -0.006245      0.007525
     2   Atom       -0.002551     -0.005813      0.008364
     3   Atom       -0.000412     -0.003022      0.003435
     4   Atom       -0.000888     -0.003356      0.004244
     5   Atom        0.346697     -0.177624     -0.169073
     6   Atom        1.128040     -0.317114     -0.810926
     7   Atom        0.211655     -0.090105     -0.121549
     8   Atom        0.580525     -0.219473     -0.361052
     9   Atom        0.020579     -0.008308     -0.012271
    10   Atom       -0.000342      0.015374     -0.015032
    11   Atom       -0.004368     -0.036355      0.040723
    12   Atom        0.054312     -0.029250     -0.025062
    13   Atom       -0.003043     -0.000550      0.003592
    14   Atom       -0.000820      0.008953     -0.008133
    15   Atom        0.001985      0.002699     -0.004684
    16   Atom        0.008056     -0.005364     -0.002693
    17   Atom        0.003655     -0.001851     -0.001804
    18   Atom        0.002248     -0.000645     -0.001604
    19   Atom        0.000219     -0.000743      0.000524
    20   Atom        0.000556      0.001267     -0.001823
 --------------------------------------------------------
                        XY            XZ            YZ
 --------------------------------------------------------
     1   Atom       -0.001432     -0.004886     -0.000244
     2   Atom        0.000584     -0.001957      0.000012
     3   Atom       -0.000661     -0.003862      0.001660
     4   Atom        0.001904     -0.005302     -0.003333
     5   Atom        0.170071      0.056595     -0.010854
     6   Atom        1.077821      0.425181      0.228562
     7   Atom        0.102921      0.015111      0.006640
     8   Atom        0.376268      0.078074      0.032080
     9   Atom       -0.010473      0.014803     -0.006434
    10   Atom        0.000283     -0.009227      0.042915
    11   Atom        0.018675     -0.009604     -0.015492
    12   Atom       -0.001165      0.017330     -0.000066
    13   Atom       -0.002859      0.005189     -0.008983
    14   Atom       -0.007953     -0.000290      0.000384
    15   Atom       -0.010853      0.006282     -0.006473
    16   Atom       -0.000977     -0.004129     -0.001638
    17   Atom        0.002351      0.006793      0.003007
    18   Atom       -0.000481      0.001068     -0.000643
    19   Atom       -0.001437      0.001317     -0.002044
    20   Atom       -0.002264      0.000796      0.000106
 --------------------------------------------------------


 ---------------------------------------------------------------------------------
              Anisotropic Spin Dipole Couplings in Principal Axis System
 ---------------------------------------------------------------------------------

       Atom             a.u.   MegaHertz   Gauss  10(-4) cm-1        Axes

              Baa    -0.0068    -0.918    -0.327    -0.306  0.3590  0.9231  0.1378
     1 C(13)  Bbb    -0.0029    -0.385    -0.137    -0.128  0.8391 -0.3839  0.3854
              Bcc     0.0097     1.303     0.465     0.435 -0.4087  0.0227  0.9124
 
              Baa    -0.0059    -3.160    -1.128    -1.054 -0.1854  0.9823 -0.0262
     2 H(1)   Bbb    -0.0028    -1.484    -0.529    -0.495  0.9676  0.1871  0.1697
              Bcc     0.0087     4.644     1.657     1.549 -0.1716 -0.0061  0.9851
 
              Baa    -0.0035    -1.865    -0.665    -0.622 -0.2550  0.8985 -0.3574
     3 H(1)   Bbb    -0.0027    -1.424    -0.508    -0.475  0.8206  0.3966  0.4114
              Bcc     0.0062     3.288     1.173     1.097 -0.5114  0.1883  0.8385
 
              Baa    -0.0046    -2.466    -0.880    -0.823  0.1409  0.8960  0.4211
     4 H(1)   Bbb    -0.0042    -2.218    -0.792    -0.740  0.8525 -0.3261  0.4086
              Bcc     0.0088     4.685     1.672     1.563 -0.5034 -0.3014  0.8098
 
              Baa    -0.2387    17.269     6.162     5.760 -0.2919  0.8800  0.3747
     5 O(17)  Bbb    -0.1630    11.792     4.208     3.934  0.0258 -0.3844  0.9228
              Bcc     0.4016   -29.062   -10.370    -9.694  0.9561  0.2790  0.0895
 
              Baa    -0.9007    65.173    23.255    21.739 -0.0774 -0.2363  0.9686
     6 O(17)  Bbb    -0.8919    64.537    23.028    21.527 -0.4915  0.8543  0.1691
              Bcc     1.7926  -129.710   -46.284   -43.267  0.8674  0.4629  0.1823
 
              Baa    -0.1240   -66.147   -23.603   -22.064  0.1649 -0.6471  0.7444
     7 H(1)   Bbb    -0.1202   -64.120   -22.880   -21.388 -0.2484  0.7031  0.6663
              Bcc     0.2442   130.267    46.482    43.452  0.9545  0.2948  0.0448
 
              Baa    -0.3693   -49.552   -17.682   -16.529 -0.2781  0.8094 -0.5173
     8 C(13)  Bbb    -0.3669   -49.236   -17.569   -16.423 -0.2522  0.4581  0.8524
              Bcc     0.7362    98.788    35.250    32.952  0.9269  0.3675  0.0767
 
              Baa    -0.0187    -2.505    -0.894    -0.836 -0.2653  0.3007  0.9161
     9 C(13)  Bbb    -0.0114    -1.531    -0.546    -0.511  0.3825  0.9050 -0.1863
              Bcc     0.0301     4.036     1.440     1.346  0.8851 -0.3010  0.3551
 
              Baa    -0.0466   -24.888    -8.881    -8.302  0.1650 -0.5617  0.8107
    10 H(1)   Bbb     0.0004     0.203     0.073     0.068  0.9801  0.1852 -0.0712
              Bcc     0.0463    24.684     8.808     8.234 -0.1101  0.8063  0.5811
 
              Baa    -0.0462   -24.638    -8.792    -8.218 -0.3815  0.9164  0.1212
    11 H(1)   Bbb    -0.0010    -0.544    -0.194    -0.181  0.8875  0.3264  0.3253
              Bcc     0.0472    25.182     8.986     8.400 -0.2586 -0.2317  0.9378
 
              Baa    -0.0293    -3.934    -1.404    -1.312  0.0666  0.9642 -0.2566
    12 C(13)  Bbb    -0.0286    -3.842    -1.371    -1.282 -0.1937  0.2648  0.9447
              Bcc     0.0579     7.776     2.775     2.594  0.9788 -0.0132  0.2044
 
              Baa    -0.0080    -4.274    -1.525    -1.426 -0.2997  0.6848  0.6642
    13 H(1)   Bbb    -0.0049    -2.602    -0.929    -0.868  0.8894  0.4524 -0.0652
              Bcc     0.0129     6.876     2.454     2.294  0.3451 -0.5713  0.7447
 
              Baa    -0.0081    -4.346    -1.551    -1.450  0.0307 -0.0082  0.9995
    14 H(1)   Bbb    -0.0053    -2.810    -1.003    -0.937  0.8723  0.4885 -0.0228
              Bcc     0.0134     7.155     2.553     2.387 -0.4881  0.8725  0.0221
 
              Baa    -0.0085    -1.143    -0.408    -0.381  0.7516  0.6436 -0.1448
    15 C(13)  Bbb    -0.0084    -1.133    -0.404    -0.378 -0.1516  0.3821  0.9116
              Bcc     0.0170     2.276     0.812     0.759 -0.6420  0.6632 -0.3847
 
              Baa    -0.0067    -3.578    -1.277    -1.194  0.2060  0.8135  0.5439
    16 H(1)   Bbb    -0.0028    -1.475    -0.526    -0.492  0.2439 -0.5810  0.7765
              Bcc     0.0095     5.053     1.803     1.685  0.9477 -0.0273 -0.3180
 
              Baa    -0.0067    -3.596    -1.283    -1.200 -0.4798 -0.2806  0.8313
    17 H(1)   Bbb    -0.0027    -1.433    -0.511    -0.478 -0.4113  0.9088  0.0694
              Bcc     0.0094     5.029     1.795     1.678  0.7750  0.3086  0.5515
 
              Baa    -0.0021    -1.103    -0.394    -0.368 -0.1879  0.3507  0.9175
    18 H(1)   Bbb    -0.0006    -0.308    -0.110    -0.103  0.2678  0.9170 -0.2957
              Bcc     0.0026     1.412     0.504     0.471  0.9450 -0.1902  0.2662
 
              Baa    -0.0023    -1.244    -0.444    -0.415  0.2133  0.8383  0.5017
    19 H(1)   Bbb    -0.0009    -0.489    -0.174    -0.163  0.8163  0.1292 -0.5630
              Bcc     0.0032     1.733     0.618     0.578  0.5368 -0.5296  0.6568
 
              Baa    -0.0023    -1.245    -0.444    -0.415 -0.4793 -0.3254  0.8151
    20 H(1)   Bbb    -0.0009    -0.484    -0.173    -0.162  0.5818  0.5776  0.5727
              Bcc     0.0032     1.729     0.617     0.577 -0.6571  0.7487 -0.0875
 

 ---------------------------------------------------------------------------------

 1\1\GINC-N187\Scan\UB2PLYPD3-FC\CC-pVTZ\C5H13O2(2)\ROOT\18-Jun-2019\0\
 \# opt=(calcfc,ts,noeigentest,maxcyc=500,modredundant) uB2PLYPD3/cc-pv
 tz scf=maxcyc=500 nosymm\\Title Card Required\\0,2\C,-2.7933961769,0.5
 713322382,0.9360955321\H,-1.7959950254,0.5564534909,1.3794363239\H,-3.
 429821259,1.2634010826,1.4838360799\H,-3.2203951205,-0.4299810103,0.95
 61274001\O,-2.7507099854,1.0726208472,-0.3910994832\O,-2.0248166308,0.
 1530885639,-1.1738897903\H,-0.9254377969,0.5304017847,-1.1188248798\C,
 0.3628163159,0.9532736933,-1.0037420412\C,1.1562805354,-0.1685754871,-
 0.4005486656\H,0.2209855592,1.8327121731,-0.3806971497\H,0.5997704762,
 1.2038216307,-2.0338674588\C,2.6415950537,0.1873619096,-0.2339555136\H
 ,0.7456678914,-0.4348199461,0.5754814389\H,1.0763880481,-1.0593674705,
 -1.0269512543\C,3.4430491068,-0.955664053,0.380294063\H,3.0573568271,0
 .4504546072,-1.20833477\H,2.7280707672,1.0788818172,0.3901222442\H,4.4
 928643804,-0.6880743018,0.4914429204\H,3.0584284121,-1.2164256272,1.36
 63710853\H,3.3896336216,-1.8484289426,-0.2427650814\\Version=ES64L-G16
 RevB.01\HF=-348.0238508,-348.0238705,-348.023873,-348.0238686,-348.023
 8661,-348.023869,-348.0238828,-348.023911,-348.0239525,-348.023999,-34
 8.0240447,-348.0240827,-348.0241091,-348.0241307,-348.0241587,-348.024
 2012,-348.0242602,-348.0243216,-348.0243654,-348.0243743,-348.024356,-
 348.0243243,-348.0242786,-348.0242083,-348.024118,-348.024025,-348.023
 9571,-348.0239057,-348.0238573,-348.0238085,-348.0237529,-348.0237105,
 -348.0236854,-348.0236965,-348.02374,-348.0238019,-348.0238502\MP2=-34
 8.4724684,-348.4724491,-348.4724104,-348.4723698,-348.4723352,-348.472
 3127,-348.4723086,-348.4723308,-348.4723802,-348.4724498,-348.4725243,
 -348.4725896,-348.4726388,-348.4726808,-348.472735,-348.4728214,-348.4
 729504,-348.4731106,-348.4732611,-348.4733599,-348.4733972,-348.473398
 6,-348.4733807,-348.4733321,-348.4732609,-348.4731879,-348.4731072,-34
 8.4729958,-348.4728474,-348.4726803,-348.4725246,-348.4724081,-348.472
 3446,-348.4723374,-348.4723813,-348.4724432,-348.472469\PUHF=-348.0300
 214,-348.0300377,-348.030037,-348.0300299,-348.030024,-348.0300256,-34
 8.0300382,-348.0300657,-348.0301085,-348.0301573,-348.0302058,-348.030
 2458,-348.0302738,-348.0302962,-348.0303241,-348.0303661,-348.0304227,
 -348.0304806,-348.0305143,-348.0305107,-348.0304814,-348.0304457,-348.
 0304031,-348.0303391,-348.0302567,-348.0301725,-348.0301173,-348.03008
 12,-348.0300468,-348.0300062,-348.0299523,-348.029906,-348.0298773,-34
 8.0298823,-348.0299201,-348.0299767,-348.0300211\PMP2-0=-348.4729774,-
 348.4729575,-348.4729183,-348.4728773,-348.4728423,-348.4728194,-348.4
 728151,-348.4728371,-348.4728866,-348.4729564,-348.473031,-348.4730966
 ,-348.4731461,-348.4731883,-348.4732425,-348.4733287,-348.4734572,-348
 .4736168,-348.4737661,-348.4738638,-348.4739002,-348.4739015,-348.4738
 843,-348.473837,-348.4737672,-348.4736953,-348.4736158,-348.4735057,-3
 48.4733587,-348.4731927,-348.4730376,-348.4729213,-348.4728576,-348.47
 28497,-348.4728925,-348.4729531,-348.4729779\S2=0.768345,0.768325,0.76
 8309,0.768294,0.76828,0.768273,0.76827,0.768269,0.768277,0.768288,0.76
 8298,0.768306,0.76831,0.768309,0.7683,0.768286,0.768266,0.768249,0.768
 223,0.768199,0.768182,0.768183,0.768205,0.768239,0.768281,0.768314,0.7
 6834,0.768361,0.768382,0.7684,0.768415,0.768427,0.768435,0.768425,0.76
 8405,0.768373,0.768346\S2-1=0.742739,0.74274,0.742743,0.742745,0.74274
 6,0.742745,0.742743,0.74274,0.742736,0.742731,0.742726,0.742726,0.7427
 27,0.742731,0.742735,0.742737,0.742739,0.742738,0.742742,0.742748,0.74
 2754,0.742758,0.742761,0.742762,0.742762,0.742759,0.742752,0.742746,0.
 742742,0.742744,0.742749,0.742755,0.742755,0.742753,0.742747,0.742742,
 0.742739\S2A=0.750149,0.750149,0.750149,0.750149,0.750149,0.750148,0.7
 50148,0.750148,0.750148,0.750149,0.750149,0.750149,0.750149,0.750149,0
 .750149,0.750148,0.750148,0.750148,0.750148,0.750148,0.750148,0.750148
 ,0.750148,0.750149,0.750149,0.75015,0.75015,0.75015,0.75015,0.75015,0.
 75015,0.75015,0.75015,0.75015,0.75015,0.75015,0.750149\RMSD=2.878e-09,
 6.675e-09,8.380e-09,3.086e-09,3.617e-09,8.691e-09,4.953e-09,5.361e-09,
 4.048e-09,7.378e-09,6.131e-09,8.655e-09,8.976e-09,3.621e-09,9.342e-09,
 8.711e-09,6.018e-09,9.870e-09,7.670e-09,9.521e-09,8.214e-09,6.748e-09,
 8.863e-09,7.635e-09,9.691e-09,7.833e-09,7.642e-09,4.152e-09,5.183e-09,
 7.459e-09,8.753e-09,7.816e-09,9.583e-09,8.327e-09,7.462e-09,5.677e-09,
 3.961e-09\PG=C01 [X(C5H13O2)]\\@


 THE MOLECULE ALSO HAS A BODY.  WHEN THIS BODY IS HIT, THE MOLECULE
 FEELS HURT ALL OVER -- A. KITAIGORODSKI
 Job cpu time:      31 days 19 hours 45 minutes 44.0 seconds.
 Elapsed time:       0 days 19 hours 17 minutes 37.9 seconds.
 File lengths (MBytes):  RWF= 138612 Int=      0 D2E=      0 Chk=     27 Scr=      1
 Normal termination of Gaussian 16 at Tue Jun 18 05:14:15 2019.
