 Entering Gaussian System, Link 0=g16
 Initial command:
 /ichec/packages/gaussian/16b01/l1.exe "/localscratch/353444/Gau-50093.inp" -scrdir="/localscratch/353444/"
 Entering Link 1 = /ichec/packages/gaussian/16b01/l1.exe PID=     50599.
  
 Copyright (c) 1988-2017, Gaussian, Inc.  All Rights Reserved.
  
 This is part of the Gaussian(R) 16 program.  It is based on
 the Gaussian(R) 09 system (copyright 2009, Gaussian, Inc.),
 the Gaussian(R) 03 system (copyright 2003, Gaussian, Inc.),
 the Gaussian(R) 98 system (copyright 1998, Gaussian, Inc.),
 the Gaussian(R) 94 system (copyright 1995, Gaussian, Inc.),
 the Gaussian 92(TM) system (copyright 1992, Gaussian, Inc.),
 the Gaussian 90(TM) system (copyright 1990, Gaussian, Inc.),
 the Gaussian 88(TM) system (copyright 1988, Gaussian, Inc.),
 the Gaussian 86(TM) system (copyright 1986, Carnegie Mellon
 University), and the Gaussian 82(TM) system (copyright 1983,
 Carnegie Mellon University). Gaussian is a federally registered
 trademark of Gaussian, Inc.
  
 This software contains proprietary and confidential information,
 including trade secrets, belonging to Gaussian, Inc.
  
 This software is provided under written license and may be
 used, copied, transmitted, or stored only in accord with that
 written license.
  
 The following legend is applicable only to US Government
 contracts under FAR:
  
                    RESTRICTED RIGHTS LEGEND
  
 Use, reproduction and disclosure by the US Government is
 subject to restrictions as set forth in subparagraphs (a)
 and (c) of the Commercial Computer Software - Restricted
 Rights clause in FAR 52.227-19.
  
 Gaussian, Inc.
 340 Quinnipiac St., Bldg. 40, Wallingford CT 06492
  
  
 ---------------------------------------------------------------
 Warning -- This program may not be used in any manner that
 competes with the business of Gaussian, Inc. or will provide
 assistance to any competitor of Gaussian, Inc.  The licensee
 of this program is prohibited from giving any competitor of
 Gaussian, Inc. access to this program.  By using this program,
 the user acknowledges that Gaussian, Inc. is engaged in the
 business of creating and licensing software in the field of
 computational chemistry and represents and warrants to the
 licensee that it is not a competitor of Gaussian, Inc. and that
 it will not use this program in any manner prohibited above.
 ---------------------------------------------------------------
  

 Cite this work as:
 Gaussian 16, Revision B.01,
 M. J. Frisch, G. W. Trucks, H. B. Schlegel, G. E. Scuseria, 
 M. A. Robb, J. R. Cheeseman, G. Scalmani, V. Barone, 
 G. A. Petersson, H. Nakatsuji, X. Li, M. Caricato, A. V. Marenich, 
 J. Bloino, B. G. Janesko, R. Gomperts, B. Mennucci, H. P. Hratchian, 
 J. V. Ortiz, A. F. Izmaylov, J. L. Sonnenberg, D. Williams-Young, 
 F. Ding, F. Lipparini, F. Egidi, J. Goings, B. Peng, A. Petrone, 
 T. Henderson, D. Ranasinghe, V. G. Zakrzewski, J. Gao, N. Rega, 
 G. Zheng, W. Liang, M. Hada, M. Ehara, K. Toyota, R. Fukuda, 
 J. Hasegawa, M. Ishida, T. Nakajima, Y. Honda, O. Kitao, H. Nakai, 
 T. Vreven, K. Throssell, J. A. Montgomery, Jr., J. E. Peralta, 
 F. Ogliaro, M. J. Bearpark, J. J. Heyd, E. N. Brothers, K. N. Kudin, 
 V. N. Staroverov, T. A. Keith, R. Kobayashi, J. Normand, 
 K. Raghavachari, A. P. Rendell, J. C. Burant, S. S. Iyengar, 
 J. Tomasi, M. Cossi, J. M. Millam, M. Klene, C. Adamo, R. Cammi, 
 J. W. Ochterski, R. L. Martin, K. Morokuma, O. Farkas, 
 J. B. Foresman, and D. J. Fox, Gaussian, Inc., Wallingford CT, 2016.
 
 ******************************************
 Gaussian 16:  ES64L-G16RevB.01 20-Dec-2017
                24-Jun-2019 
 ******************************************
 %mem=80GB
 %nproc=40
 Will use up to   40 processors via shared memory.
 ----------------------------------------------------------------------
 # opt=(calcfc,ts,noeigentest,maxcyc=500) freq=noraman uB2PLYPD3/cc-pvt
 z
 ----------------------------------------------------------------------
 1/5=1,6=500,10=4,11=1,18=20,38=1/1,3;
 2/9=110,12=2,17=6,18=5,40=1/2;
 3/5=16,6=1,11=2,25=1,30=1,71=2,74=-60,116=2,140=1/1,2,3;
 4//1;
 5/5=2,38=5/2;
 8/6=3,8=1,10=1,19=11,30=-1/1;
 9/15=3,16=-3/6;
 11/6=1,8=1,15=11,17=12,24=-1,27=1,28=-2,29=300,32=6,42=3/1,2,10;
 10/6=2,21=1/2;
 8/6=4,8=1,10=1,19=11,30=-1/11,4;
 10/5=1,20=4/2;
 11/12=2,14=11,16=1,17=2,28=-2,42=3,76=2/2,10,12;
 6/7=2,8=2,9=2,10=2/1;
 7/10=1,12=2,25=1,44=2/1,2,3,16;
 1/5=1,6=500,10=4,11=1,18=20/3(2);
 2/9=110/2;
 99//99;
 2/9=110/2;
 3/5=16,6=1,11=2,25=1,30=1,71=1,74=-60,116=2/1,2,3;
 4/5=5,16=3,69=1/1;
 5/5=2,38=5/2;
 8/6=4,10=1/1;
 9/15=2,16=-3/6;
 10/5=1/2;
 7/12=2/1,2,3,16;
 1/5=1,6=500,11=1,18=20/3(-8);
 2/9=110/2;
 6/7=2,8=2,9=2,10=2/1;
 99/9=10/99;
 -------------------
 Title Card Required
 -------------------
 Symbolic Z-matrix:
 Charge =  0 Multiplicity = 2
 C                     1.70395   0.03305   0.43445 
 H                     1.8614    0.36927   1.45925 
 H                     1.03275  -0.82516   0.488 
 C                     1.0532    1.12835  -0.35951 
 H                     1.50271   2.11451  -0.28193 
 H                     0.77317   0.87443  -1.37843 
 C                    -2.43346  -0.18436  -0.22184 
 H                    -1.8587   -0.12672  -1.14773 
 H                    -2.81211  -1.19503  -0.08334 
 H                    -3.25755   0.52619  -0.25476 
 O                    -1.6046    0.06196   0.90465 
 O                    -1.15807   1.39663   0.82566 
 H                    -0.14896   1.32296   0.25181 
 C                     3.04317  -0.40301  -0.17542 
 H                     3.7449    0.42931  -0.21507 
 H                     3.49453  -1.19775   0.41747 
 H                     2.90741  -0.77462  -1.19059 
 
 Add virtual bond connecting atoms H13        and O12        Dist= 2.20D+00.
 Add virtual bond connecting atoms H13        and C4         Dist= 2.58D+00.

 GradGradGradGradGradGradGradGradGradGradGradGradGradGradGradGradGradGrad
 Berny optimization.
 Initialization pass.
                           ----------------------------
                           !    Initial Parameters    !
                           ! (Angstroms and Degrees)  !
 --------------------------                            --------------------------
 ! Name  Definition              Value          Derivative Info.                !
 --------------------------------------------------------------------------------
 ! R1    R(1,2)                  1.09           calculate D2E/DX2 analytically  !
 ! R2    R(1,3)                  1.0908         calculate D2E/DX2 analytically  !
 ! R3    R(1,4)                  1.5012         calculate D2E/DX2 analytically  !
 ! R4    R(1,14)                 1.5348         calculate D2E/DX2 analytically  !
 ! R5    R(4,5)                  1.0865         calculate D2E/DX2 analytically  !
 ! R6    R(4,6)                  1.0868         calculate D2E/DX2 analytically  !
 ! R7    R(4,13)                 1.3626         calculate D2E/DX2 analytically  !
 ! R8    R(7,8)                  1.0913         calculate D2E/DX2 analytically  !
 ! R9    R(7,9)                  1.0881         calculate D2E/DX2 analytically  !
 ! R10   R(7,10)                 1.0886         calculate D2E/DX2 analytically  !
 ! R11   R(7,11)                 1.4201         calculate D2E/DX2 analytically  !
 ! R12   R(11,12)                1.4096         calculate D2E/DX2 analytically  !
 ! R13   R(12,13)                1.1632         calculate D2E/DX2 analytically  !
 ! R14   R(14,15)                1.0894         calculate D2E/DX2 analytically  !
 ! R15   R(14,16)                1.0894         calculate D2E/DX2 analytically  !
 ! R16   R(14,17)                1.0895         calculate D2E/DX2 analytically  !
 ! A1    A(2,1,3)              106.5833         calculate D2E/DX2 analytically  !
 ! A2    A(2,1,4)              109.5619         calculate D2E/DX2 analytically  !
 ! A3    A(2,1,14)             109.5841         calculate D2E/DX2 analytically  !
 ! A4    A(3,1,4)              109.4675         calculate D2E/DX2 analytically  !
 ! A5    A(3,1,14)             109.4437         calculate D2E/DX2 analytically  !
 ! A6    A(4,1,14)             112.0486         calculate D2E/DX2 analytically  !
 ! A7    A(1,4,5)              116.4305         calculate D2E/DX2 analytically  !
 ! A8    A(1,4,6)              115.9184         calculate D2E/DX2 analytically  !
 ! A9    A(1,4,13)             104.44           calculate D2E/DX2 analytically  !
 ! A10   A(5,4,6)              112.6814         calculate D2E/DX2 analytically  !
 ! A11   A(5,4,13)             101.7314         calculate D2E/DX2 analytically  !
 ! A12   A(6,4,13)             103.1007         calculate D2E/DX2 analytically  !
 ! A13   A(8,7,9)              109.8962         calculate D2E/DX2 analytically  !
 ! A14   A(8,7,10)             109.7898         calculate D2E/DX2 analytically  !
 ! A15   A(8,7,11)             110.8827         calculate D2E/DX2 analytically  !
 ! A16   A(9,7,10)             110.2834         calculate D2E/DX2 analytically  !
 ! A17   A(9,7,11)             105.2627         calculate D2E/DX2 analytically  !
 ! A18   A(10,7,11)            110.6472         calculate D2E/DX2 analytically  !
 ! A19   A(7,11,12)            107.7382         calculate D2E/DX2 analytically  !
 ! A20   A(11,12,13)           104.0333         calculate D2E/DX2 analytically  !
 ! A21   A(1,14,15)            111.0673         calculate D2E/DX2 analytically  !
 ! A22   A(1,14,16)            110.6425         calculate D2E/DX2 analytically  !
 ! A23   A(1,14,17)            111.0032         calculate D2E/DX2 analytically  !
 ! A24   A(15,14,16)           108.0764         calculate D2E/DX2 analytically  !
 ! A25   A(15,14,17)           107.8741         calculate D2E/DX2 analytically  !
 ! A26   A(16,14,17)           108.0523         calculate D2E/DX2 analytically  !
 ! A27   L(4,13,12,8,-1)       179.3818         calculate D2E/DX2 analytically  !
 ! A28   L(4,13,12,8,-2)       174.5544         calculate D2E/DX2 analytically  !
 ! D1    D(2,1,4,5)             48.7911         calculate D2E/DX2 analytically  !
 ! D2    D(2,1,4,6)           -175.1269         calculate D2E/DX2 analytically  !
 ! D3    D(2,1,4,13)           -62.4602         calculate D2E/DX2 analytically  !
 ! D4    D(3,1,4,5)            165.3337         calculate D2E/DX2 analytically  !
 ! D5    D(3,1,4,6)            -58.5843         calculate D2E/DX2 analytically  !
 ! D6    D(3,1,4,13)            54.0824         calculate D2E/DX2 analytically  !
 ! D7    D(14,1,4,5)           -73.0594         calculate D2E/DX2 analytically  !
 ! D8    D(14,1,4,6)            63.0225         calculate D2E/DX2 analytically  !
 ! D9    D(14,1,4,13)          175.6893         calculate D2E/DX2 analytically  !
 ! D10   D(2,1,14,15)          -61.8345         calculate D2E/DX2 analytically  !
 ! D11   D(2,1,14,16)           58.1947         calculate D2E/DX2 analytically  !
 ! D12   D(2,1,14,17)          178.1514         calculate D2E/DX2 analytically  !
 ! D13   D(3,1,14,15)         -178.3761         calculate D2E/DX2 analytically  !
 ! D14   D(3,1,14,16)          -58.3469         calculate D2E/DX2 analytically  !
 ! D15   D(3,1,14,17)           61.6098         calculate D2E/DX2 analytically  !
 ! D16   D(4,1,14,15)           60.0034         calculate D2E/DX2 analytically  !
 ! D17   D(4,1,14,16)         -179.9675         calculate D2E/DX2 analytically  !
 ! D18   D(4,1,14,17)          -60.0107         calculate D2E/DX2 analytically  !
 ! D19   D(1,4,12,11)          -49.1986         calculate D2E/DX2 analytically  !
 ! D20   D(5,4,12,11)         -170.471          calculate D2E/DX2 analytically  !
 ! D21   D(6,4,12,11)           71.6699         calculate D2E/DX2 analytically  !
 ! D22   D(8,7,11,12)           65.22           calculate D2E/DX2 analytically  !
 ! D23   D(9,7,11,12)         -175.9858         calculate D2E/DX2 analytically  !
 ! D24   D(10,7,11,12)         -56.8536         calculate D2E/DX2 analytically  !
 ! D25   D(7,11,12,13)         -91.8697         calculate D2E/DX2 analytically  !
 --------------------------------------------------------------------------------
 Trust Radius=3.00D-01 FncErr=1.00D-07 GrdErr=1.00D-07 EigMax=2.50D+02 EigMin=1.00D-04
 Number of steps in this run=    102 maximum allowed number of steps=    102.
 Search for a saddle point of order  1.
 GradGradGradGradGradGradGradGradGradGradGradGradGradGradGradGradGradGrad

                          Input orientation:                          
 ---------------------------------------------------------------------
 Center     Atomic      Atomic             Coordinates (Angstroms)
 Number     Number       Type             X           Y           Z
 ---------------------------------------------------------------------
      1          6           0        1.703945    0.033049    0.434445
      2          1           0        1.861396    0.369265    1.459254
      3          1           0        1.032754   -0.825157    0.487995
      4          6           0        1.053201    1.128349   -0.359514
      5          1           0        1.502712    2.114508   -0.281927
      6          1           0        0.773171    0.874428   -1.378431
      7          6           0       -2.433457   -0.184357   -0.221841
      8          1           0       -1.858703   -0.126723   -1.147729
      9          1           0       -2.812107   -1.195025   -0.083341
     10          1           0       -3.257554    0.526191   -0.254756
     11          8           0       -1.604596    0.061960    0.904648
     12          8           0       -1.158074    1.396634    0.825655
     13          1           0       -0.148961    1.322962    0.251809
     14          6           0        3.043165   -0.403011   -0.175415
     15          1           0        3.744896    0.429306   -0.215066
     16          1           0        3.494530   -1.197751    0.417468
     17          1           0        2.907414   -0.774615   -1.190593
 ---------------------------------------------------------------------
                    Distance matrix (angstroms):
                    1          2          3          4          5
     1  C    0.000000
     2  H    1.089984   0.000000
     3  H    1.090817   1.748324   0.000000
     4  C    1.501173   2.130095   2.129525   0.000000
     5  H    2.210465   2.491232   3.074942   1.086549   0.000000
     6  H    2.204717   3.080889   2.537621   1.086777   1.808964
     7  C    4.194767   4.645249   3.595707   3.728128   4.558708
     8  H    3.901444   4.569628   3.394691   3.267365   4.131808
     9  H    4.708608   5.164129   3.904636   4.518290   5.441517
    10  H    5.033355   5.400565   4.559009   4.353869   5.018329
    11  O    3.341911   3.523510   2.813573   3.130364   3.908488
    12  O    3.194301   3.251789   3.138486   2.523161   2.970162
    13  H    2.265059   2.531600   2.463057   1.362638   1.907732
    14  C    1.534792   2.159891   2.158720   2.517720   2.953344
    15  H    2.178156   2.520818   3.069802   2.784735   2.805667
    16  H    2.172867   2.491583   2.490811   3.460423   3.927792
    17  H    2.177477   3.069903   2.516856   2.783895   3.338547
                    6          7          8          9         10
     6  H    0.000000
     7  C    3.569480   0.000000
     8  H    2.825294   1.091299   0.000000
     9  H    4.337524   1.088121   1.784144   0.000000
    10  H    4.198888   1.088622   1.783390   1.786166   0.000000
    11  O    3.395045   1.420092   2.076637   2.003551   2.071714
    12  O    2.976643   2.285472   2.589545   3.206056   2.516501
    13  H    1.925926   2.777639   2.642633   3.680344   3.248816
    14  C    2.869141   5.481182   5.005001   5.909312   6.369362
    15  H    3.222220   6.208758   5.707832   6.756485   7.003233
    16  H    3.863285   6.047868   5.679265   6.326491   7.001036
    17  H    2.703631   5.460017   4.810143   5.840862   6.369829
                   11         12         13         14         15
    11  O    0.000000
    12  O    1.409602   0.000000
    13  H    2.033519   1.163201   0.000000
    14  C    4.794207   4.678811   3.653925   0.000000
    15  H    5.477752   5.104698   4.022277   1.089381   0.000000
    16  H    5.274969   5.342675   4.433561   1.089428   1.763547
    17  H    5.044614   5.030683   3.977660   1.089543   1.761379
                   16         17
    16  H    0.000000
    17  H    1.763408   0.000000
 Stoichiometry    C4H11O2(2)
 Framework group  C1[X(C4H11O2)]
 Deg. of freedom    45
 Full point group                 C1      NOp   1
 Largest Abelian subgroup         C1      NOp   1
 Largest concise Abelian subgroup C1      NOp   1
                         Standard orientation:                         
 ---------------------------------------------------------------------
 Center     Atomic      Atomic             Coordinates (Angstroms)
 Number     Number       Type             X           Y           Z
 ---------------------------------------------------------------------
      1          6           0       -1.589732   -0.095094   -0.405287
      2          1           0       -1.637058    0.471938   -1.334964
      3          1           0       -0.976566   -0.974261   -0.607712
      4          6           0       -0.934877    0.737446    0.658463
      5          1           0       -1.307898    1.751009    0.777350
      6          1           0       -0.759581    0.241187    1.609296
      7          6           0        2.453234   -0.805178    0.458586
      8          1           0        1.807875   -0.905143    1.332916
      9          1           0        2.772325   -1.788636    0.119471
     10          1           0        3.318209   -0.192650    0.707034
     11          8           0        1.740873   -0.245583   -0.635057
     12          8           0        1.381434    1.071598   -0.284609
     13          1           0        0.324939    0.959166    0.188903
     14          6           0       -3.002157   -0.539324   -0.001178
     15          1           0       -3.646281    0.320381    0.179823
     16          1           0       -3.455214   -1.141466   -0.787954
     17          1           0       -2.978008   -1.136745    0.909651
 ---------------------------------------------------------------------
 Rotational constants (GHZ):           6.6752908           1.2995089           1.2277912
 Standard basis: CC-pVTZ (5D, 7F)
 There are   375 symmetry adapted cartesian basis functions of A   symmetry.
 There are   334 symmetry adapted basis functions of A   symmetry.
   334 basis functions,   499 primitive gaussians,   375 cartesian basis functions
    26 alpha electrons       25 beta electrons
       nuclear repulsion energy       249.1249020418 Hartrees.
 NAtoms=   17 NActive=   17 NUniq=   17 SFac= 1.00D+00 NAtFMM=   60 NAOKFM=F Big=F
 Integral buffers will be    131072 words long.
 Raffenetti 2 integral format.
 Two-electron integral symmetry is turned on.
 Nuclear repulsion after empirical dispersion term =      249.1171133686 Hartrees.
 One-electron integrals computed using PRISM.
 NBasis=   334 RedAO= T EigKep=  7.99D-04  NBF=   334
 NBsUse=   334 1.00D-06 EigRej= -1.00D+00 NBFU=   334
 ExpMin= 1.03D-01 ExpMax= 1.53D+04 ExpMxC= 5.22D+02 IAcc=3 IRadAn=         5 AccDes= 0.00D+00
 Harris functional with IExCor=  419 and IRadAn=       5 diagonalized for initial guess.
 HarFok:  IExCor=  419 AccDes= 0.00D+00 IRadAn=         5 IDoV= 1 UseB2=F ITyADJ=14
 ICtDFT=  3500011 ScaDFX=  1.000000  1.000000  1.000000  1.000000
 FoFCou: FMM=F IPFlag=           0 FMFlag=      100000 FMFlg1=           0
         NFxFlg=           0 DoJE=T BraDBF=F KetDBF=T FulRan=T
         wScrn=  0.000000 ICntrl=       500 IOpCl=  0 I1Cent=   200000004 NGrid=           0
         NMat0=    1 NMatS0=      1 NMatT0=    0 NMatD0=    1 NMtDS0=    0 NMtDT0=    0
 Petite list used in FoFCou.
 Initial guess <Sx>= 0.0000 <Sy>= 0.0000 <Sz>= 0.5000 <S**2>= 0.7500 S= 0.5000
 Requested convergence on RMS density matrix=1.00D-08 within 128 cycles.
 Requested convergence on MAX density matrix=1.00D-06.
 Requested convergence on             energy=1.00D-06.
 No special actions if energy rises.
 Integral accuracy reduced to 1.0D-05 until final iterations.
 Initial convergence to 1.0D-05 achieved.  Increase integral accuracy.
 SCF Done:  E(UB2PLYPD3) =  -308.790881984     A.U. after   19 cycles
            NFock= 19  Conv=0.27D-08     -V/T= 2.0044
 <Sx>= 0.0000 <Sy>= 0.0000 <Sz>= 0.5000 <S**2>= 0.7682 S= 0.5091
 <L.S>=  0.00000000000    
 Annihilation of the first spin contaminant:
 S**2 before annihilation     0.7682,   after     0.7501
 DoSCS=T DFT=T ScalE2(SS,OS)=  0.270000  0.270000
 ExpMin= 1.03D-01 ExpMax= 1.53D+04 ExpMxC= 5.22D+02 IAcc=3 IRadAn=         5 AccDes= 0.00D+00
 HarFok:  IExCor=  205 AccDes= 0.00D+00 IRadAn=         5 IDoV=-2 UseB2=F ITyADJ=14
 ICtDFT= 12500011 ScaDFX=  1.000000  1.000000  1.000000  1.000000
 Range of M.O.s used for correlation:     7   334
 NBasis=   334 NAE=    26 NBE=    25 NFC=     6 NFV=     0
 NROrb=    328 NOA=    20 NOB=    19 NVA=   308 NVB=   309

 **** Warning!!: The largest alpha MO coefficient is  0.12071298D+02


 **** Warning!!: The largest beta MO coefficient is  0.12070946D+02

 DoSCS=T DFT=T ScalE2(SS,OS)=  0.270000  0.270000
 Disk-based method using ON**2 memory for 20 occupieds at a time.
 Permanent disk used for amplitudes=    91502950 words.
 Estimated scratch disk usage=  1767496342 words.
 Actual    scratch disk usage=  1709188758 words.
 JobTyp=2 Pass  1:  I=   7 to  26 NPSUse= 40 ParTrn=T ParDer=T DoDerP=T.
 (rs|ai) integrals will be sorted in core.
 Actual    scratch disk usage=  1709188758 words.
 JobTyp=3 Pass  1:  I=   7 to  25 NPSUse= 40 ParTrn=T ParDer=T DoDerP=T.
 (rs|ai) integrals will be sorted in core.
 Spin components of T(2) and E(2):
     alpha-alpha T2 =       0.6432992850D-01 E2=     -0.4725331538D-01
     alpha-beta  T2 =       0.3970426262D+00 E2=     -0.2992642802D+00
     beta-beta   T2 =       0.6862293640D-01 E2=     -0.4561363610D-01
 (S**2,0)=  0.76819D+00           (S**2,1)=  0.74276D+00
 Scaling Projection term by:   0.270000
 E(PUHF)=      -0.30879701419D+03        E(PMP2)=      -0.30918351727D+03
 E2(B2PLYPD3) =    -0.3921312317D+00 E(B2PLYPD3) =    -0.30918301321546D+03
 G2DrvN: will do    18 centers at a time, making    1 passes.
 Calling FoFCou, ICntrl=  3107 FMM=F I1Cent=   0 AccDes= 0.00D+00.
 End of G2Drv F.D. properties file   721 does not exist.
 End of G2Drv F.D. properties file   722 does not exist.
 End of G2Drv F.D. properties file   788 does not exist.
          IDoAtm=11111111111111111
          Differentiating once with respect to electric field.
                with respect to dipole field.
          Differentiating once with respect to nuclear coordinates.
 Keep R1 and R2 ints in memory in canonical form, NReq=3176104348.
          There are    54 degrees of freedom in the 1st order CPHF.  IDoFFX=6 NUNeed=    54.
     51 vectors produced by pass  0 Test12= 2.91D-14 1.85D-09 XBig12= 7.52D+01 5.02D+00.
 AX will form    51 AO Fock derivatives at one time.
     51 vectors produced by pass  1 Test12= 2.91D-14 1.85D-09 XBig12= 5.03D+00 3.48D-01.
     51 vectors produced by pass  2 Test12= 2.91D-14 1.85D-09 XBig12= 3.76D-01 1.33D-01.
     51 vectors produced by pass  3 Test12= 2.91D-14 1.85D-09 XBig12= 5.55D-03 9.55D-03.
     51 vectors produced by pass  4 Test12= 2.91D-14 1.85D-09 XBig12= 5.54D-05 7.53D-04.
     51 vectors produced by pass  5 Test12= 2.91D-14 1.85D-09 XBig12= 5.92D-07 8.45D-05.
     50 vectors produced by pass  6 Test12= 2.91D-14 1.85D-09 XBig12= 5.49D-09 7.03D-06.
     16 vectors produced by pass  7 Test12= 2.91D-14 1.85D-09 XBig12= 3.47D-11 5.08D-07.
      3 vectors produced by pass  8 Test12= 2.91D-14 1.85D-09 XBig12= 1.91D-13 3.48D-08.
      2 vectors produced by pass  9 Test12= 2.91D-14 1.85D-09 XBig12= 1.65D-15 3.17D-09.
 InvSVY:  IOpt=1 It=  1 EMax= 3.55D-15
 Solved reduced A of dimension   377 with    54 vectors.
 End of Minotr F.D. properties file   721 does not exist.
 End of Minotr F.D. properties file   722 does not exist.
 End of Minotr F.D. properties file   788 does not exist.
 MDV= 10737418240.
 DoSCS=T DFT=T ScalE2(SS,OS)=  0.270000  0.270000
 Form MO integral derivatives with frozen-active canonical formalism.
 Discarding MO integrals.
 Reordered first order wavefunction length =    368623478
 In DefCFB: NBatch=  1 ICI= 26 ICA=309 LFMax= 78
            Large arrays: LIAPS=  7882233000 LIARS=  1476247500 words.
 In DefCFB: NBatch=  1 ICI= 26 ICA=309 LFMax= 78
            Large arrays: LIAPS=  7882233000 LIARS=  1476247500 words.
 Semi-Direct transformation.
 ModeAB=           4 MOrb=            26 LenV=   10734133599
 LASXX=    460751213 LTotXX=   460751213 LenRXX=   928395468
 LTotAB=   467644255 MaxLAS=   540726628 LenRXY=           0
 NonZer=  1389146681 LenScr=  2091891712 LnRSAI=   540726628
 LnScr1=   814271488 LExtra=           0 Total=   4375285296
 MaxDsk=          -1 SrtSym=           T ITran=            4
 JobTyp=1 Pass  1:  I=   1 to  26.
 (rs|ai) integrals will be sorted in core.
 ModeAB=           4 MOrb=            25 LenV=   10734133599
 LASXX=    443915925 LTotXX=   443915925 LenRXX=   826983225
 LTotAB=   383067300 MaxLAS=   519929450 LenRXY=           0
 NonZer=  1270899150 LenScr=  1913825280 LnRSAI=   519929450
 LnScr1=   782953472 LExtra=           0 Total=   4043691427
 MaxDsk=          -1 SrtSym=           T ITran=            4
 JobTyp=2 Pass  1:  I=   1 to  25.
 (rs|ai) integrals will be sorted in core.
 SymMOI:  orbitals are not symmetric.
 DoSCS=T DFT=T ScalE2(SS,OS)=  0.270000  0.270000
 Spin components of T(2) and E(2):
     alpha-alpha T2 =       0.6432992850D-01 E2=     -0.4725331538D-01
     alpha-beta  T2 =       0.3970426262D+00 E2=     -0.2992642802D+00
     beta-beta   T2 =       0.6862293640D-01 E2=     -0.4561363610D-01
 E2(B2PLYPD3) =    -0.3921312317D+00 E(B2PLYPD3) =    -0.30918301321546D+03
 (S**2,0)=  0.76819D+00           (S**2,1)=  0.74276D+00
 Scaling Projection term by:   0.270000
 E(PUHF)=      -0.30879701419D+03        E(PMP2)=      -0.30918351727D+03
          IDoAtm=11111111111111111
          Differentiating once with respect to electric field.
                with respect to dipole field.
          Differentiating once with respect to nuclear coordinates.
 Keep R1 and R2 ints in memory in canonical form, NReq=3176239665.
          There are     1 degrees of freedom in the 1st order CPHF.  IDoFFX=0 NUNeed=     1.
 LinEq1:  Iter=  0 NonCon=     1 RMS=8.76D-04 Max=6.58D-02 NDo=     1
 AX will form     1 AO Fock derivatives at one time.
 LinEq1:  Iter=  1 NonCon=     1 RMS=2.82D-04 Max=9.57D-03 NDo=     1
 LinEq1:  Iter=  2 NonCon=     1 RMS=1.54D-04 Max=8.45D-03 NDo=     1
 LinEq1:  Iter=  3 NonCon=     1 RMS=6.10D-05 Max=9.42D-04 NDo=     1
 LinEq1:  Iter=  4 NonCon=     1 RMS=3.38D-05 Max=6.42D-04 NDo=     1
 LinEq1:  Iter=  5 NonCon=     1 RMS=2.37D-05 Max=8.90D-04 NDo=     1
 LinEq1:  Iter=  6 NonCon=     1 RMS=1.54D-05 Max=4.58D-04 NDo=     1
 LinEq1:  Iter=  7 NonCon=     1 RMS=5.67D-06 Max=8.71D-05 NDo=     1
 LinEq1:  Iter=  8 NonCon=     1 RMS=2.62D-06 Max=3.71D-05 NDo=     1
 LinEq1:  Iter=  9 NonCon=     1 RMS=1.09D-06 Max=2.60D-05 NDo=     1
 LinEq1:  Iter= 10 NonCon=     1 RMS=3.89D-07 Max=8.64D-06 NDo=     1
 LinEq1:  Iter= 11 NonCon=     1 RMS=1.39D-07 Max=3.22D-06 NDo=     1
 LinEq1:  Iter= 12 NonCon=     1 RMS=3.91D-08 Max=8.08D-07 NDo=     1
 LinEq1:  Iter= 13 NonCon=     1 RMS=1.35D-08 Max=3.37D-07 NDo=     1
 LinEq1:  Iter= 14 NonCon=     1 RMS=6.64D-09 Max=1.36D-07 NDo=     1
 LinEq1:  Iter= 15 NonCon=     1 RMS=2.21D-09 Max=3.56D-08 NDo=     1
 LinEq1:  Iter= 16 NonCon=     1 RMS=6.46D-10 Max=1.04D-08 NDo=     1
 LinEq1:  Iter= 17 NonCon=     1 RMS=1.91D-10 Max=5.32D-09 NDo=     1
 LinEq1:  Iter= 18 NonCon=     1 RMS=5.90D-11 Max=2.78D-09 NDo=     1
 LinEq1:  Iter= 19 NonCon=     1 RMS=2.10D-11 Max=1.16D-09 NDo=     1
 LinEq1:  Iter= 20 NonCon=     0 RMS=6.36D-12 Max=2.91D-10 NDo=     1
 Linear equations converged to 1.000D-10 1.000D-09 after    20 iterations.
 End of Minotr F.D. properties file   721 does not exist.
 End of Minotr F.D. properties file   722 does not exist.
 End of Minotr F.D. properties file   788 does not exist.
 Symmetrizing basis deriv contribution to polar:
 IMax=3 JMax=2 DiffMx= 0.00D+00
 G2DrvN: will do    18 centers at a time, making    1 passes.
 Calling FoFCou, ICntrl=  3107 FMM=F I1Cent=   0 AccDes= 0.00D+00.
 End of G2Drv F.D. properties file   721 does not exist.
 End of G2Drv F.D. properties file   722 does not exist.
 End of G2Drv F.D. properties file   788 does not exist.
 DoSCS=T DFT=T ScalE2(SS,OS)=  0.270000  0.270000
 R2 and R3 integrals will be kept in memory, NReq=  4996899000.
 DD1Dir will call FoFMem   1 times, MxPair=      1926
 NAB=   650 NAA=   325 NBB=   300.
 Discarding MO integrals.

 **********************************************************************

            Population analysis using the SCF Density.

 **********************************************************************

 Orbital symmetries:
 Alpha Orbitals:
       Occupied  (A) (A) (A) (A) (A) (A) (A) (A) (A) (A) (A) (A)
                 (A) (A) (A) (A) (A) (A) (A) (A) (A) (A) (A) (A)
                 (A) (A)
       Virtual   (A) (A) (A) (A) (A) (A) (A) (A) (A) (A) (A) (A)
                 (A) (A) (A) (A) (A) (A) (A) (A) (A) (A) (A) (A)
                 (A) (A) (A) (A) (A) (A) (A) (A) (A) (A) (A) (A)
                 (A) (A) (A) (A) (A) (A) (A) (A) (A) (A) (A) (A)
                 (A) (A) (A) (A) (A) (A) (A) (A) (A) (A) (A) (A)
                 (A) (A) (A) (A) (A) (A) (A) (A) (A) (A) (A) (A)
                 (A) (A) (A) (A) (A) (A) (A) (A) (A) (A) (A) (A)
                 (A) (A) (A) (A) (A) (A) (A) (A) (A) (A) (A) (A)
                 (A) (A) (A) (A) (A) (A) (A) (A) (A) (A) (A) (A)
                 (A) (A) (A) (A) (A) (A) (A) (A) (A) (A) (A) (A)
                 (A) (A) (A) (A) (A) (A) (A) (A) (A) (A) (A) (A)
                 (A) (A) (A) (A) (A) (A) (A) (A) (A) (A) (A) (A)
                 (A) (A) (A) (A) (A) (A) (A) (A) (A) (A) (A) (A)
                 (A) (A) (A) (A) (A) (A) (A) (A) (A) (A) (A) (A)
                 (A) (A) (A) (A) (A) (A) (A) (A) (A) (A) (A) (A)
                 (A) (A) (A) (A) (A) (A) (A) (A) (A) (A) (A) (A)
                 (A) (A) (A) (A) (A) (A) (A) (A) (A) (A) (A) (A)
                 (A) (A) (A) (A) (A) (A) (A) (A) (A) (A) (A) (A)
                 (A) (A) (A) (A) (A) (A) (A) (A) (A) (A) (A) (A)
                 (A) (A) (A) (A) (A) (A) (A) (A) (A) (A) (A) (A)
                 (A) (A) (A) (A) (A) (A) (A) (A) (A) (A) (A) (A)
                 (A) (A) (A) (A) (A) (A) (A) (A) (A) (A) (A) (A)
                 (A) (A) (A) (A) (A) (A) (A) (A) (A) (A) (A) (A)
                 (A) (A) (A) (A) (A) (A) (A) (A) (A) (A) (A) (A)
                 (A) (A) (A) (A) (A) (A) (A) (A) (A) (A) (A) (A)
                 (A) (A) (A) (A) (A) (A) (A) (A)
 Beta  Orbitals:
       Occupied  (A) (A) (A) (A) (A) (A) (A) (A) (A) (A) (A) (A)
                 (A) (A) (A) (A) (A) (A) (A) (A) (A) (A) (A) (A)
                 (A)
       Virtual   (A) (A) (A) (A) (A) (A) (A) (A) (A) (A) (A) (A)
                 (A) (A) (A) (A) (A) (A) (A) (A) (A) (A) (A) (A)
                 (A) (A) (A) (A) (A) (A) (A) (A) (A) (A) (A) (A)
                 (A) (A) (A) (A) (A) (A) (A) (A) (A) (A) (A) (A)
                 (A) (A) (A) (A) (A) (A) (A) (A) (A) (A) (A) (A)
                 (A) (A) (A) (A) (A) (A) (A) (A) (A) (A) (A) (A)
                 (A) (A) (A) (A) (A) (A) (A) (A) (A) (A) (A) (A)
                 (A) (A) (A) (A) (A) (A) (A) (A) (A) (A) (A) (A)
                 (A) (A) (A) (A) (A) (A) (A) (A) (A) (A) (A) (A)
                 (A) (A) (A) (A) (A) (A) (A) (A) (A) (A) (A) (A)
                 (A) (A) (A) (A) (A) (A) (A) (A) (A) (A) (A) (A)
                 (A) (A) (A) (A) (A) (A) (A) (A) (A) (A) (A) (A)
                 (A) (A) (A) (A) (A) (A) (A) (A) (A) (A) (A) (A)
                 (A) (A) (A) (A) (A) (A) (A) (A) (A) (A) (A) (A)
                 (A) (A) (A) (A) (A) (A) (A) (A) (A) (A) (A) (A)
                 (A) (A) (A) (A) (A) (A) (A) (A) (A) (A) (A) (A)
                 (A) (A) (A) (A) (A) (A) (A) (A) (A) (A) (A) (A)
                 (A) (A) (A) (A) (A) (A) (A) (A) (A) (A) (A) (A)
                 (A) (A) (A) (A) (A) (A) (A) (A) (A) (A) (A) (A)
                 (A) (A) (A) (A) (A) (A) (A) (A) (A) (A) (A) (A)
                 (A) (A) (A) (A) (A) (A) (A) (A) (A) (A) (A) (A)
                 (A) (A) (A) (A) (A) (A) (A) (A) (A) (A) (A) (A)
                 (A) (A) (A) (A) (A) (A) (A) (A) (A) (A) (A) (A)
                 (A) (A) (A) (A) (A) (A) (A) (A) (A) (A) (A) (A)
                 (A) (A) (A) (A) (A) (A) (A) (A) (A) (A) (A) (A)
                 (A) (A) (A) (A) (A) (A) (A) (A) (A)
 The electronic state is 2-A.
 Alpha  occ. eigenvalues --  -19.78466 -19.78241 -10.65970 -10.63599 -10.61773
 Alpha  occ. eigenvalues --  -10.60990  -1.27165  -1.01918  -0.91469  -0.80397
 Alpha  occ. eigenvalues --   -0.77343  -0.68952  -0.60856  -0.55893  -0.54555
 Alpha  occ. eigenvalues --   -0.54314  -0.51030  -0.49469  -0.46980  -0.45313
 Alpha  occ. eigenvalues --   -0.43915  -0.41862  -0.40308  -0.36809  -0.36444
 Alpha  occ. eigenvalues --   -0.29759
 Alpha virt. eigenvalues --    0.07179   0.09390   0.10956   0.12009   0.12680
 Alpha virt. eigenvalues --    0.13889   0.15246   0.16067   0.16656   0.17737
 Alpha virt. eigenvalues --    0.18894   0.20363   0.22615   0.25914   0.28072
 Alpha virt. eigenvalues --    0.29313   0.30746   0.31771   0.33154   0.34982
 Alpha virt. eigenvalues --    0.36467   0.36846   0.40925   0.42373   0.45753
 Alpha virt. eigenvalues --    0.48316   0.48727   0.50270   0.51046   0.51823
 Alpha virt. eigenvalues --    0.52234   0.53058   0.53295   0.53626   0.54604
 Alpha virt. eigenvalues --    0.55715   0.56482   0.57234   0.59506   0.61792
 Alpha virt. eigenvalues --    0.62774   0.64342   0.68157   0.69046   0.71978
 Alpha virt. eigenvalues --    0.74273   0.77171   0.77557   0.80927   0.82358
 Alpha virt. eigenvalues --    0.83943   0.86963   0.89449   0.91627   0.93364
 Alpha virt. eigenvalues --    0.94692   0.95083   0.97381   0.98097   1.03728
 Alpha virt. eigenvalues --    1.04638   1.06622   1.07963   1.09681   1.09724
 Alpha virt. eigenvalues --    1.10986   1.12269   1.13734   1.14550   1.15266
 Alpha virt. eigenvalues --    1.17033   1.18464   1.21470   1.22080   1.22856
 Alpha virt. eigenvalues --    1.25073   1.26775   1.27845   1.29176   1.31104
 Alpha virt. eigenvalues --    1.33237   1.34828   1.36726   1.38073   1.38962
 Alpha virt. eigenvalues --    1.39986   1.40202   1.42050   1.43795   1.44534
 Alpha virt. eigenvalues --    1.47083   1.48305   1.51163   1.54328   1.55329
 Alpha virt. eigenvalues --    1.60382   1.60859   1.63858   1.64284   1.66318
 Alpha virt. eigenvalues --    1.71733   1.73285   1.77256   1.79799   1.88698
 Alpha virt. eigenvalues --    1.93829   1.99092   2.05068   2.12180   2.18824
 Alpha virt. eigenvalues --    2.22593   2.27797   2.32121   2.36738   2.37608
 Alpha virt. eigenvalues --    2.39490   2.42359   2.42655   2.46928   2.48617
 Alpha virt. eigenvalues --    2.50571   2.54411   2.56985   2.59149   2.62884
 Alpha virt. eigenvalues --    2.63711   2.65664   2.67149   2.71574   2.74695
 Alpha virt. eigenvalues --    2.77459   2.79457   2.80847   2.85024   2.89209
 Alpha virt. eigenvalues --    2.90146   2.91158   2.91660   2.93035   2.93770
 Alpha virt. eigenvalues --    2.96111   2.96361   2.99802   3.01981   3.03168
 Alpha virt. eigenvalues --    3.03595   3.08771   3.09703   3.11674   3.12969
 Alpha virt. eigenvalues --    3.14471   3.15386   3.17762   3.18135   3.19490
 Alpha virt. eigenvalues --    3.20470   3.21232   3.21651   3.23349   3.24477
 Alpha virt. eigenvalues --    3.27629   3.29187   3.31114   3.32308   3.36634
 Alpha virt. eigenvalues --    3.40445   3.41708   3.42791   3.43345   3.44918
 Alpha virt. eigenvalues --    3.49802   3.50291   3.51157   3.52712   3.53330
 Alpha virt. eigenvalues --    3.54629   3.55966   3.58858   3.59190   3.61066
 Alpha virt. eigenvalues --    3.62599   3.64427   3.65138   3.66903   3.70320
 Alpha virt. eigenvalues --    3.73935   3.78261   3.82266   3.85501   3.85823
 Alpha virt. eigenvalues --    3.86890   3.88010   3.89078   3.90509   3.91652
 Alpha virt. eigenvalues --    3.92537   3.94092   3.95971   3.96549   3.97977
 Alpha virt. eigenvalues --    3.99358   4.02678   4.03560   4.05366   4.05441
 Alpha virt. eigenvalues --    4.08173   4.10731   4.12535   4.13191   4.14358
 Alpha virt. eigenvalues --    4.16448   4.17684   4.19099   4.21570   4.23698
 Alpha virt. eigenvalues --    4.24679   4.25143   4.26564   4.29704   4.31058
 Alpha virt. eigenvalues --    4.35523   4.36672   4.36903   4.38543   4.40971
 Alpha virt. eigenvalues --    4.43545   4.44669   4.46368   4.49298   4.53049
 Alpha virt. eigenvalues --    4.55371   4.60923   4.62893   4.67442   4.68109
 Alpha virt. eigenvalues --    4.72644   4.77909   4.81604   4.81821   4.86883
 Alpha virt. eigenvalues --    4.89090   4.94479   4.95003   4.98269   4.99921
 Alpha virt. eigenvalues --    5.00427   5.02202   5.02716   5.04444   5.05237
 Alpha virt. eigenvalues --    5.07079   5.09181   5.14216   5.19437   5.22121
 Alpha virt. eigenvalues --    5.25809   5.28728   5.30718   5.33895   5.35105
 Alpha virt. eigenvalues --    5.35664   5.37134   5.39589   5.40340   5.45222
 Alpha virt. eigenvalues --    5.45840   5.47040   5.49540   5.50821   5.53133
 Alpha virt. eigenvalues --    5.60104   5.63624   5.66466   5.67931   5.68029
 Alpha virt. eigenvalues --    5.73732   5.78145   5.86604   5.92951   5.96943
 Alpha virt. eigenvalues --    6.03050   6.05137   6.05981   6.08039   6.09167
 Alpha virt. eigenvalues --    6.13205   6.25614   6.32168   6.37801   6.40889
 Alpha virt. eigenvalues --    6.64721   6.75299   6.76217   6.83318   6.96430
 Alpha virt. eigenvalues --    7.05454   7.07358   7.18536   7.42303   7.43603
 Alpha virt. eigenvalues --    7.58772   7.74573   9.88189  10.59875  12.47558
 Alpha virt. eigenvalues --   13.17621  13.42617  13.65649
  Beta  occ. eigenvalues --  -19.78329 -19.76634 -10.65979 -10.62334 -10.61829
  Beta  occ. eigenvalues --  -10.60866  -1.25318  -0.99033  -0.90194  -0.78412
  Beta  occ. eigenvalues --   -0.76720  -0.67891  -0.57452  -0.55031  -0.54010
  Beta  occ. eigenvalues --   -0.53825  -0.49942  -0.47314  -0.46482  -0.43544
  Beta  occ. eigenvalues --   -0.42623  -0.41443  -0.40118  -0.35243  -0.33386
  Beta virt. eigenvalues --   -0.04368   0.07358   0.09583   0.11303   0.12170
  Beta virt. eigenvalues --    0.12960   0.14348   0.15281   0.16209   0.16726
  Beta virt. eigenvalues --    0.17831   0.19209   0.20903   0.23229   0.26399
  Beta virt. eigenvalues --    0.28345   0.29480   0.30916   0.31926   0.33235
  Beta virt. eigenvalues --    0.35806   0.36827   0.37518   0.41904   0.42937
  Beta virt. eigenvalues --    0.45894   0.48832   0.49089   0.50817   0.51740
  Beta virt. eigenvalues --    0.51992   0.52477   0.53120   0.53762   0.54091
  Beta virt. eigenvalues --    0.55727   0.56347   0.57586   0.57929   0.60001
  Beta virt. eigenvalues --    0.62205   0.63094   0.64883   0.68429   0.69306
  Beta virt. eigenvalues --    0.72528   0.75132   0.77366   0.77921   0.81194
  Beta virt. eigenvalues --    0.82695   0.84083   0.87348   0.89749   0.91779
  Beta virt. eigenvalues --    0.93803   0.95059   0.95383   0.97433   0.98391
  Beta virt. eigenvalues --    1.04024   1.04766   1.06922   1.08153   1.09956
  Beta virt. eigenvalues --    1.10272   1.11167   1.12513   1.13952   1.14735
  Beta virt. eigenvalues --    1.15462   1.17117   1.18572   1.21912   1.22647
  Beta virt. eigenvalues --    1.23146   1.25227   1.27208   1.27998   1.29455
  Beta virt. eigenvalues --    1.31291   1.33647   1.35057   1.37258   1.38515
  Beta virt. eigenvalues --    1.39241   1.40149   1.40461   1.42590   1.44053
  Beta virt. eigenvalues --    1.44757   1.47243   1.48550   1.51852   1.54761
  Beta virt. eigenvalues --    1.55568   1.60853   1.61314   1.64021   1.64618
  Beta virt. eigenvalues --    1.66732   1.72219   1.73574   1.77969   1.80257
  Beta virt. eigenvalues --    1.91348   1.94676   1.99639   2.06084   2.12502
  Beta virt. eigenvalues --    2.21162   2.22756   2.28584   2.32436   2.36975
  Beta virt. eigenvalues --    2.38019   2.39979   2.43005   2.43337   2.47013
  Beta virt. eigenvalues --    2.49140   2.50882   2.54691   2.57476   2.59318
  Beta virt. eigenvalues --    2.63112   2.64934   2.66232   2.67735   2.71710
  Beta virt. eigenvalues --    2.74958   2.78251   2.79667   2.81151   2.85097
  Beta virt. eigenvalues --    2.89759   2.90319   2.91464   2.91978   2.93553
  Beta virt. eigenvalues --    2.94303   2.96739   2.97594   3.00108   3.02462
  Beta virt. eigenvalues --    3.03373   3.04096   3.09024   3.10147   3.11809
  Beta virt. eigenvalues --    3.13219   3.14670   3.15809   3.17943   3.18649
  Beta virt. eigenvalues --    3.19842   3.20795   3.21360   3.21838   3.24314
  Beta virt. eigenvalues --    3.25760   3.27714   3.29315   3.31215   3.34010
  Beta virt. eigenvalues --    3.36759   3.40598   3.41694   3.42877   3.44554
  Beta virt. eigenvalues --    3.45011   3.49963   3.50922   3.51603   3.52862
  Beta virt. eigenvalues --    3.53500   3.55120   3.56328   3.59076   3.59512
  Beta virt. eigenvalues --    3.61382   3.62864   3.64625   3.65386   3.67136
  Beta virt. eigenvalues --    3.70897   3.74173   3.78513   3.82575   3.85563
  Beta virt. eigenvalues --    3.86101   3.86937   3.88171   3.89203   3.90595
  Beta virt. eigenvalues --    3.91619   3.92852   3.94262   3.96123   3.96485
  Beta virt. eigenvalues --    3.98270   3.99509   4.02861   4.03787   4.05373
  Beta virt. eigenvalues --    4.05611   4.08279   4.10809   4.12637   4.13434
  Beta virt. eigenvalues --    4.14455   4.16537   4.17990   4.19215   4.21939
  Beta virt. eigenvalues --    4.23925   4.24727   4.25328   4.26968   4.29669
  Beta virt. eigenvalues --    4.31319   4.35594   4.36983   4.37168   4.38596
  Beta virt. eigenvalues --    4.41160   4.43765   4.44906   4.46596   4.49499
  Beta virt. eigenvalues --    4.53481   4.55970   4.61789   4.63551   4.67726
  Beta virt. eigenvalues --    4.68532   4.73244   4.78169   4.81965   4.82134
  Beta virt. eigenvalues --    4.87406   4.89494   4.94603   4.95391   4.98478
  Beta virt. eigenvalues --    5.00096   5.00570   5.02361   5.02987   5.04613
  Beta virt. eigenvalues --    5.05462   5.07441   5.09736   5.14785   5.19807
  Beta virt. eigenvalues --    5.23150   5.26316   5.29172   5.30958   5.34256
  Beta virt. eigenvalues --    5.35612   5.35886   5.37602   5.39885   5.41026
  Beta virt. eigenvalues --    5.45474   5.46039   5.47296   5.49688   5.50927
  Beta virt. eigenvalues --    5.53224   5.60328   5.63721   5.66810   5.68239
  Beta virt. eigenvalues --    5.68682   5.74361   5.78623   5.88145   5.93011
  Beta virt. eigenvalues --    5.97225   6.04233   6.05202   6.06118   6.08906
  Beta virt. eigenvalues --    6.09498   6.13294   6.26030   6.34307   6.38341
  Beta virt. eigenvalues --    6.42341   6.65730   6.77059   6.78925   6.84551
  Beta virt. eigenvalues --    6.98168   7.06398   7.08693   7.20815   7.42751
  Beta virt. eigenvalues --    7.45474   7.60646   7.75167   9.89057  10.60927
  Beta virt. eigenvalues --   12.48175  13.18074  13.42623  13.65749
          Condensed to atoms (all electrons):
               1          2          3          4          5          6
     1  C    4.874438   0.408603   0.417068   0.314678  -0.030358  -0.041791
     2  H    0.408603   0.583406  -0.032313  -0.032514  -0.005503   0.006920
     3  H    0.417068  -0.032313   0.579601  -0.038249   0.006398  -0.004954
     4  C    0.314678  -0.032514  -0.038249   5.156954   0.403644   0.401608
     5  H   -0.030358  -0.005503   0.006398   0.403644   0.541143  -0.030429
     6  H   -0.041791   0.006920  -0.004954   0.401608  -0.030429   0.564584
     7  C    0.000302   0.000071  -0.000890  -0.003855   0.000078   0.000237
     8  H    0.000432  -0.000010  -0.001485  -0.000284  -0.000242  -0.000717
     9  H   -0.000119  -0.000029   0.000069   0.000373   0.000002  -0.000101
    10  H    0.000014  -0.000010   0.000360  -0.000296   0.000037  -0.000043
    11  O   -0.004524  -0.000634   0.012481   0.004174   0.000541  -0.000040
    12  O   -0.001057   0.003295  -0.002495  -0.074550   0.000211  -0.000475
    13  H   -0.007601  -0.001955  -0.003088   0.216361  -0.007703  -0.006850
    14  C    0.323567  -0.032563  -0.039756  -0.050183  -0.002491  -0.002093
    15  H   -0.034902  -0.005363   0.006895  -0.002544   0.002320  -0.000198
    16  H   -0.034618  -0.004740  -0.003911   0.007551  -0.000156  -0.000142
    17  H   -0.035137   0.007061  -0.005017  -0.003817   0.000010   0.003011
               7          8          9         10         11         12
     1  C    0.000302   0.000432  -0.000119   0.000014  -0.004524  -0.001057
     2  H    0.000071  -0.000010  -0.000029  -0.000010  -0.000634   0.003295
     3  H   -0.000890  -0.001485   0.000069   0.000360   0.012481  -0.002495
     4  C   -0.003855  -0.000284   0.000373  -0.000296   0.004174  -0.074550
     5  H    0.000078  -0.000242   0.000002   0.000037   0.000541   0.000211
     6  H    0.000237  -0.000717  -0.000101  -0.000043  -0.000040  -0.000475
     7  C    4.597987   0.391930   0.395540   0.411528   0.304444  -0.046655
     8  H    0.391930   0.687005  -0.034707  -0.059758  -0.050638  -0.002233
     9  H    0.395540  -0.034707   0.593501  -0.028998  -0.026392   0.006818
    10  H    0.411528  -0.059758  -0.028998   0.618645  -0.038089   0.004079
    11  O    0.304444  -0.050638  -0.026392  -0.038089   7.946818   0.071248
    12  O   -0.046655  -0.002233   0.006818   0.004079   0.071248   8.065450
    13  H    0.002187   0.004610  -0.000514   0.000452  -0.028970   0.202398
    14  C   -0.000060   0.000029  -0.000011  -0.000002  -0.000033   0.000302
    15  H    0.000000   0.000005   0.000000  -0.000000  -0.000011   0.000010
    16  H   -0.000001   0.000000   0.000000  -0.000000  -0.000002   0.000008
    17  H    0.000003  -0.000003  -0.000000   0.000000  -0.000003  -0.000000
              13         14         15         16         17
     1  C   -0.007601   0.323567  -0.034902  -0.034618  -0.035137
     2  H   -0.001955  -0.032563  -0.005363  -0.004740   0.007061
     3  H   -0.003088  -0.039756   0.006895  -0.003911  -0.005017
     4  C    0.216361  -0.050183  -0.002544   0.007551  -0.003817
     5  H   -0.007703  -0.002491   0.002320  -0.000156   0.000010
     6  H   -0.006850  -0.002093  -0.000198  -0.000142   0.003011
     7  C    0.002187  -0.000060   0.000000  -0.000001   0.000003
     8  H    0.004610   0.000029   0.000005   0.000000  -0.000003
     9  H   -0.000514  -0.000011   0.000000   0.000000  -0.000000
    10  H    0.000452  -0.000002  -0.000000  -0.000000   0.000000
    11  O   -0.028970  -0.000033  -0.000011  -0.000002  -0.000003
    12  O    0.202398   0.000302   0.000010   0.000008  -0.000000
    13  H    0.411967   0.001569  -0.000168  -0.000063  -0.000037
    14  C    0.001569   4.874295   0.406125   0.409431   0.407025
    15  H   -0.000168   0.406125   0.597674  -0.029838  -0.034272
    16  H   -0.000063   0.409431  -0.029838   0.580536  -0.029797
    17  H   -0.000037   0.407025  -0.034272  -0.029797   0.597871
          Atomic-Atomic Spin Densities.
               1          2          3          4          5          6
     1  C   -0.027542   0.002503   0.002928  -0.030798   0.000524   0.001335
     2  H    0.002503   0.003504   0.000615  -0.003102   0.000768   0.000021
     3  H    0.002928   0.000615   0.006428  -0.003058  -0.000062   0.000682
     4  C   -0.030798  -0.003102  -0.003058   0.714345   0.003831   0.002562
     5  H    0.000524   0.000768  -0.000062   0.003831  -0.023570   0.003395
     6  H    0.001335   0.000021   0.000682   0.002562   0.003395  -0.024084
     7  C   -0.000235  -0.000018  -0.000175   0.000905  -0.000033  -0.000199
     8  H    0.000427   0.000027   0.000306  -0.004421   0.000144   0.001070
     9  H   -0.000013   0.000001  -0.000028   0.000112  -0.000002  -0.000007
    10  H   -0.000083  -0.000006  -0.000047   0.001149  -0.000027  -0.000143
    11  O   -0.002034  -0.000178  -0.001182   0.012461  -0.000243  -0.000846
    12  O    0.007127   0.000709   0.000931  -0.089049   0.002334   0.003371
    13  H   -0.001317  -0.000377   0.000616   0.061562   0.001718   0.000907
    14  C    0.013504  -0.002745  -0.002485  -0.016338  -0.001617  -0.001720
    15  H   -0.000047   0.000134   0.000091   0.001419   0.000242   0.000174
    16  H   -0.002258   0.000607   0.000673   0.001703   0.000145   0.000190
    17  H    0.000618   0.000009  -0.000010   0.000145   0.000055   0.000014
               7          8          9         10         11         12
     1  C   -0.000235   0.000427  -0.000013  -0.000083  -0.002034   0.007127
     2  H   -0.000018   0.000027   0.000001  -0.000006  -0.000178   0.000709
     3  H   -0.000175   0.000306  -0.000028  -0.000047  -0.001182   0.000931
     4  C    0.000905  -0.004421   0.000112   0.001149   0.012461  -0.089049
     5  H   -0.000033   0.000144  -0.000002  -0.000027  -0.000243   0.002334
     6  H   -0.000199   0.001070  -0.000007  -0.000143  -0.000846   0.003371
     7  C   -0.005523   0.003845   0.000614  -0.002663   0.000881  -0.001800
     8  H    0.003845   0.002046  -0.000814  -0.001288  -0.000972   0.003665
     9  H    0.000614  -0.000814  -0.001802   0.001081   0.000099  -0.000202
    10  H   -0.002663  -0.001288   0.001081   0.003869  -0.000524  -0.000358
    11  O    0.000881  -0.000972   0.000099  -0.000524   0.047442  -0.040498
    12  O   -0.001800   0.003665  -0.000202  -0.000358  -0.040498   0.575331
    13  H    0.001023  -0.003377   0.000062   0.001335   0.009906  -0.050069
    14  C    0.000038  -0.000076   0.000003   0.000005   0.000137  -0.000492
    15  H   -0.000000   0.000002  -0.000000  -0.000000  -0.000004   0.000020
    16  H   -0.000002   0.000006  -0.000000  -0.000000  -0.000015   0.000028
    17  H   -0.000002   0.000009  -0.000000  -0.000000  -0.000008   0.000014
              13         14         15         16         17
     1  C   -0.001317   0.013504  -0.000047  -0.002258   0.000618
     2  H   -0.000377  -0.002745   0.000134   0.000607   0.000009
     3  H    0.000616  -0.002485   0.000091   0.000673  -0.000010
     4  C    0.061562  -0.016338   0.001419   0.001703   0.000145
     5  H    0.001718  -0.001617   0.000242   0.000145   0.000055
     6  H    0.000907  -0.001720   0.000174   0.000190   0.000014
     7  C    0.001023   0.000038  -0.000000  -0.000002  -0.000002
     8  H   -0.003377  -0.000076   0.000002   0.000006   0.000009
     9  H    0.000062   0.000003  -0.000000  -0.000000  -0.000000
    10  H    0.001335   0.000005  -0.000000  -0.000000  -0.000000
    11  O    0.009906   0.000137  -0.000004  -0.000015  -0.000008
    12  O   -0.050069  -0.000492   0.000020   0.000028   0.000014
    13  H   -0.097270   0.000249  -0.000056  -0.000045  -0.000005
    14  C    0.000249   0.048779  -0.001788  -0.003590   0.000068
    15  H   -0.000056  -0.001788  -0.002246   0.001110   0.000516
    16  H   -0.000045  -0.003590   0.001110   0.010531   0.000295
    17  H   -0.000005   0.000068   0.000516   0.000295  -0.002690
 Mulliken charges and spin densities:
               1          2
     1  C   -0.148994  -0.035363
     2  H    0.106278   0.002473
     3  H    0.109287   0.006223
     4  C   -0.299050   0.653428
     5  H    0.122498  -0.012396
     6  H    0.111472  -0.013276
     7  C   -0.052846  -0.003345
     8  H    0.066066   0.000600
     9  H    0.094570  -0.000897
    10  H    0.092081   0.002302
    11  O   -0.190372   0.024422
    12  O   -0.226354   0.411063
    13  H    0.217405  -0.075139
    14  C   -0.295152   0.031933
    15  H    0.094270  -0.000433
    16  H    0.105742   0.009378
    17  H    0.093100  -0.000972
 Sum of Mulliken charges =  -0.00000   1.00000
 Mulliken charges and spin densities with hydrogens summed into heavy atoms:
               1          2
     1  C    0.066571  -0.026667
     4  C   -0.065080   0.627755
     7  C    0.199871  -0.001340
    11  O   -0.190372   0.024422
    12  O   -0.008949   0.335924
    14  C   -0.002041   0.039905
 APT charges:
               1
     1  C   -0.046373
     2  H   -0.022688
     3  H   -0.007015
     4  C    0.426228
     5  H   -0.049679
     6  H   -0.062167
     7  C    0.445711
     8  H   -0.043206
     9  H   -0.007763
    10  H   -0.033042
    11  O   -0.420269
    12  O    0.124637
    13  H   -0.336830
    14  C    0.125349
    15  H   -0.021702
    16  H   -0.050086
    17  H   -0.021104
 Sum of APT charges =  -0.00000
 APT charges with hydrogens summed into heavy atoms:
               1
     1  C   -0.076075
     4  C    0.314382
     7  C    0.361699
    11  O   -0.420269
    12  O   -0.212193
    14  C    0.032457
 Electronic spatial extent (au):  <R**2>=           1017.4149
 Charge=             -0.0000 electrons
 Dipole moment (field-independent basis, Debye):
    X=             -1.1561    Y=             -1.1858    Z=              1.7269  Tot=              2.3926
 Quadrupole moment (field-independent basis, Debye-Ang):
   XX=            -37.3214   YY=            -39.0497   ZZ=            -40.0453
   XY=             -4.0670   XZ=              3.0648   YZ=              0.0916
 Traceless Quadrupole moment (field-independent basis, Debye-Ang):
   XX=              1.4841   YY=             -0.2442   ZZ=             -1.2399
   XY=             -4.0670   XZ=              3.0648   YZ=              0.0916
 Octapole moment (field-independent basis, Debye-Ang**2):
  XXX=             24.6468  YYY=              0.8470  ZZZ=             -2.1956  XYY=              3.3317
  XXY=             -5.3899  XXZ=              2.5524  XZZ=              2.2846  YZZ=              0.0909
  YYZ=             -0.4593  XYZ=             -0.6245
 Hexadecapole moment (field-independent basis, Debye-Ang**3):
 XXXX=          -1026.0332 YYYY=           -172.9011 ZZZZ=           -120.8713 XXXY=            -16.4499
 XXXZ=             11.4828 YYYX=             -9.9662 YYYZ=              2.6713 ZZZX=             -1.7382
 ZZZY=             -2.9992 XXYY=           -198.5343 XXZZ=           -198.2405 YYZZ=            -50.1825
 XXYZ=              1.1188 YYXZ=             -1.6641 ZZXY=              1.9041
 N-N= 2.491171133686D+02 E-N=-1.221005758932D+03  KE= 3.074485056637D+02
  Exact polarizability: 102.847  -4.006  61.076  -4.939   1.256  56.205
 Approx polarizability:  81.750  -2.486  70.525  -5.795   1.131  65.107
                          Isotropic Fermi Contact Couplings
        Atom                 a.u.       MegaHertz       Gauss      10(-4) cm-1
     1  C(13)             -0.01048     -11.77876      -4.20295      -3.92897
     2  H(1)               0.00157       7.03864       2.51156       2.34784
     3  H(1)               0.00458      20.49349       7.31259       6.83589
     4  C(13)              0.09493     106.71855      38.07983      35.59748
     5  H(1)              -0.00380     -16.99602      -6.06460      -5.66926
     6  H(1)              -0.00436     -19.49804      -6.95739      -6.50385
     7  C(13)             -0.00342      -3.84360      -1.37149      -1.28209
     8  H(1)               0.00225      10.03573       3.58100       3.34756
     9  H(1)              -0.00011      -0.50680      -0.18084      -0.16905
    10  H(1)               0.00058       2.57669       0.91943       0.85949
    11  O(17)              0.01456      -8.82649      -3.14951      -2.94420
    12  O(17)              0.04463     -27.05588      -9.65421      -9.02487
    13  H(1)              -0.02318    -103.61902     -36.97384     -34.56359
    14  C(13)              0.04085      45.92460      16.38704      15.31880
    15  H(1)              -0.00062      -2.75512      -0.98310      -0.91901
    16  H(1)               0.00345      15.42971       5.50570       5.14680
    17  H(1)              -0.00049      -2.21070      -0.78883      -0.73741
 --------------------------------------------------------
       Center         ----  Spin Dipole Couplings  ----
                      3XX-RR        3YY-RR        3ZZ-RR
 --------------------------------------------------------
     1   Atom        0.021297     -0.011010     -0.010287
     2   Atom       -0.000166     -0.007850      0.008017
     3   Atom       -0.004663      0.007340     -0.002678
     4   Atom        0.587032     -0.343899     -0.243133
     5   Atom       -0.000081      0.040016     -0.039934
     6   Atom       -0.000877     -0.025776      0.026653
     7   Atom       -0.000050      0.001384     -0.001335
     8   Atom       -0.000711      0.000900     -0.000189
     9   Atom        0.000269      0.002794     -0.003063
    10   Atom        0.004318     -0.002113     -0.002205
    11   Atom        0.283469     -0.225935     -0.057534
    12   Atom        1.139399     -0.653004     -0.486395
    13   Atom        0.184853     -0.115631     -0.069222
    14   Atom        0.043902     -0.014567     -0.029334
    15   Atom        0.009397     -0.003651     -0.005746
    16   Atom        0.000914     -0.001299      0.000385
    17   Atom        0.000688      0.000826     -0.001513
 --------------------------------------------------------
                        XY            XZ            YZ
 --------------------------------------------------------
     1   Atom        0.014791      0.009107      0.007855
     2   Atom        0.001344      0.007698      0.001900
     3   Atom        0.003398      0.000727      0.009354
     4   Atom        0.148971     -0.346093     -0.055068
     5   Atom       -0.017051     -0.016938      0.003666
     6   Atom       -0.004613      0.003299     -0.038045
     7   Atom       -0.007405      0.002165     -0.003678
     8   Atom       -0.004231      0.002466     -0.005997
     9   Atom       -0.004235      0.000683     -0.001538
    10   Atom       -0.004620      0.004203     -0.002186
    11   Atom        0.046264     -0.236590     -0.051089
    12   Atom        0.697234     -0.911583     -0.308061
    13   Atom        0.034062     -0.129620     -0.013743
    14   Atom        0.031995     -0.002446     -0.001808
    15   Atom       -0.001339      0.000584      0.001618
    16   Atom        0.003574      0.002249      0.003658
    17   Atom        0.007001     -0.002442     -0.003859
 --------------------------------------------------------


 ---------------------------------------------------------------------------------
              Anisotropic Spin Dipole Couplings in Principal Axis System
 ---------------------------------------------------------------------------------

       Atom             a.u.   MegaHertz   Gauss  10(-4) cm-1        Axes

              Baa    -0.0193    -2.595    -0.926    -0.865 -0.1806  0.8255 -0.5348
     1 C(13)  Bbb    -0.0109    -1.464    -0.522    -0.488 -0.4220  0.4261  0.8002
              Bcc     0.0302     4.058     1.448     1.354  0.8884  0.3702  0.2714
 
              Baa    -0.0081    -4.332    -1.546    -1.445 -0.1014  0.9925 -0.0685
     2 H(1)   Bbb    -0.0048    -2.552    -0.911    -0.851  0.8525  0.0511 -0.5202
              Bcc     0.0129     6.884     2.456     2.296  0.5128  0.1112  0.8513
 
              Baa    -0.0086    -4.610    -1.645    -1.538  0.3067 -0.5285  0.7916
     3 H(1)   Bbb    -0.0049    -2.613    -0.932    -0.872  0.9349  0.0114 -0.3546
              Bcc     0.0135     7.223     2.577     2.409  0.1784  0.8488  0.4976
 
              Baa    -0.3691   -49.527   -17.672   -16.520  0.2285  0.4892  0.8417
     4 C(13)  Bbb    -0.3667   -49.204   -17.557   -16.413 -0.2874  0.8600 -0.4218
              Bcc     0.7358    98.731    35.230    32.933  0.9302  0.1455 -0.3371
 
              Baa    -0.0462   -24.669    -8.802    -8.229  0.3542  0.0303  0.9347
     5 H(1)   Bbb    -0.0011    -0.580    -0.207    -0.193  0.8583  0.3862 -0.3378
              Bcc     0.0473    25.249     9.009     8.422 -0.3712  0.9219  0.1108
 
              Baa    -0.0459   -24.495    -8.740    -8.171  0.0569  0.8853  0.4616
     6 H(1)   Bbb    -0.0013    -0.676    -0.241    -0.225  0.9928 -0.0015 -0.1194
              Bcc     0.0472    25.171     8.981     8.396  0.1050 -0.4651  0.8790
 
              Baa    -0.0069    -0.932    -0.332    -0.311  0.6899  0.6981  0.1916
     7 C(13)  Bbb    -0.0028    -0.370    -0.132    -0.123 -0.3831  0.1276  0.9148
              Bcc     0.0097     1.301     0.464     0.434 -0.6143  0.7045 -0.3555
 
              Baa    -0.0060    -3.190    -1.138    -1.064  0.2878  0.7238  0.6272
     8 H(1)   Bbb    -0.0028    -1.508    -0.538    -0.503  0.8443  0.1173 -0.5228
              Bcc     0.0088     4.698     1.676     1.567 -0.4520  0.6800 -0.5774
 
              Baa    -0.0036    -1.896    -0.677    -0.633  0.2971  0.4075  0.8635
     9 H(1)   Bbb    -0.0027    -1.433    -0.511    -0.478  0.7564  0.4515 -0.4733
              Bcc     0.0062     3.330     1.188     1.111 -0.5828  0.7938 -0.1740
 
              Baa    -0.0045    -2.415    -0.862    -0.806  0.4725  0.8809 -0.0260
    10 H(1)   Bbb    -0.0042    -2.267    -0.809    -0.756 -0.3379  0.2084  0.9178
              Bcc     0.0088     4.682     1.671     1.562  0.8140 -0.4249  0.3962
 
              Baa    -0.2418    17.496     6.243     5.836  0.0811  0.9288  0.3616
    11 O(17)  Bbb    -0.1693    12.253     4.372     4.087  0.4610 -0.3566  0.8126
              Bcc     0.4111   -29.749   -10.615    -9.923  0.8837  0.1008 -0.4571
 
              Baa    -0.8973    64.927    23.167    21.657  0.4907 -0.5080  0.7079
    12 O(17)  Bbb    -0.8888    64.314    22.949    21.453 -0.0131  0.8081  0.5889
              Bcc     1.7861  -129.241   -46.116   -43.110  0.8712  0.2983 -0.3899
 
              Baa    -0.1237   -66.022   -23.558   -22.023  0.3956 -0.1183  0.9108
    13 H(1)   Bbb    -0.1193   -63.668   -22.718   -21.237 -0.0472  0.9877  0.1488
              Bcc     0.2431   129.690    46.277    43.260  0.9172  0.1019 -0.3852
 
              Baa    -0.0298    -4.002    -1.428    -1.335 -0.1758  0.4712  0.8643
    14 C(13)  Bbb    -0.0283    -3.796    -1.354    -1.266 -0.3647  0.7844 -0.5018
              Bcc     0.0581     7.798     2.782     2.601  0.9144  0.4034 -0.0339
 
              Baa    -0.0067    -3.580    -1.277    -1.194 -0.0723 -0.4909  0.8682
    15 H(1)   Bbb    -0.0028    -1.513    -0.540    -0.505  0.0711  0.8658  0.4954
              Bcc     0.0095     5.093     1.817     1.699  0.9948 -0.0976  0.0277
 
              Baa    -0.0047    -2.529    -0.902    -0.844 -0.3494  0.8284 -0.4379
    16 H(1)   Bbb    -0.0016    -0.849    -0.303    -0.283  0.7164 -0.0650 -0.6947
              Bcc     0.0063     3.378     1.205     1.127  0.6039  0.5564  0.5707
 
              Baa    -0.0065    -3.474    -1.240    -1.159 -0.6259  0.7348  0.2615
    17 H(1)   Bbb    -0.0031    -1.629    -0.581    -0.543  0.4522  0.0686  0.8893
              Bcc     0.0096     5.103     1.821     1.702  0.6355  0.6748 -0.3752
 

 ---------------------------------------------------------------------------------

 Calling FoFJK, ICntrl=  10100127 FMM=F ISym2X=0 I1Cent= 0 IOpClX= 1 NMat=1 NMatS=1 NMatT=0.
 ***** Axes restored to original set *****
 -------------------------------------------------------------------
 Center     Atomic                   Forces (Hartrees/Bohr)
 Number     Number              X              Y              Z
 -------------------------------------------------------------------
      1        6          -0.000051149   -0.000081681   -0.000070273
      2        1          -0.000000016    0.000000173    0.000000264
      3        1          -0.000000695    0.000000399   -0.000001471
      4        6           0.000064163    0.000088333    0.000094827
      5        1           0.000000500    0.000000377   -0.000000871
      6        1           0.000000227    0.000001353   -0.000000692
      7        6          -0.000001110   -0.000000640   -0.000000073
      8        1           0.000001493   -0.000000567    0.000000740
      9        1          -0.000000394    0.000000394    0.000000189
     10        1           0.000000309    0.000000416   -0.000000391
     11        8           0.000063525   -0.000013439    0.000110382
     12        8          -0.000075143    0.000005089   -0.000136117
     13        1          -0.000002349   -0.000001010    0.000002842
     14        6          -0.000000458    0.000000317   -0.000000439
     15        1           0.000000627    0.000000029    0.000000777
     16        1           0.000000573   -0.000000160    0.000000006
     17        1          -0.000000104    0.000000615    0.000000301
 -------------------------------------------------------------------
 Cartesian Forces:  Max     0.000136117 RMS     0.000038544
 FormGI is forming the generalized inverse of G from B-inverse, IUseBI=4.

 GradGradGradGradGradGradGradGradGradGradGradGradGradGradGradGradGradGrad
 Berny optimization.
 Internal  Forces:  Max     0.000170581 RMS     0.000029003
 Search for a saddle point.
 Step number   1 out of a maximum of  102
 All quantities printed in internal units (Hartrees-Bohrs-Radians)
 Swapping is turned off.
 Second derivative matrix not updated -- analytic derivatives used.
 ITU=  0
     Eigenvalues ---   -0.07298   0.00066   0.00133   0.00251   0.00613
     Eigenvalues ---    0.01574   0.02388   0.03019   0.03208   0.03452
     Eigenvalues ---    0.03685   0.03874   0.04589   0.04617   0.06574
     Eigenvalues ---    0.06888   0.08495   0.08523   0.08854   0.09583
     Eigenvalues ---    0.11908   0.12077   0.13045   0.13479   0.15921
     Eigenvalues ---    0.16134   0.16698   0.17977   0.18487   0.19037
     Eigenvalues ---    0.25745   0.28162   0.30781   0.31952   0.33307
     Eigenvalues ---    0.33514   0.33816   0.33850   0.34352   0.34442
     Eigenvalues ---    0.34676   0.34723   0.35029   0.35534   0.40412
 Eigenvectors required to have negative eigenvalues:
                          R7        R13       R12       A20       D1
   1                    0.69269  -0.66225   0.15129  -0.08103  -0.07836
                          D5        D7        D8        D4        D2
   1                    0.07564  -0.07179   0.07039  -0.06653   0.06382
 RFO step:  Lambda0=9.093142905D-13 Lambda=-5.13286855D-05.
 Linear search not attempted -- option 19 set.
 Iteration  1 RMS(Cart)=  0.09393629 RMS(Int)=  0.00313412
 Iteration  2 RMS(Cart)=  0.00433306 RMS(Int)=  0.00001644
 Iteration  3 RMS(Cart)=  0.00001245 RMS(Int)=  0.00001521
 Iteration  4 RMS(Cart)=  0.00000000 RMS(Int)=  0.00001521
 Variable       Old X    -DE/DX   Delta X   Delta X   Delta X     New X
                                 (Linear)    (Quad)   (Total)
    R1        2.05977   0.00000   0.00000   0.00004   0.00004   2.05981
    R2        2.06135   0.00000   0.00000  -0.00006  -0.00006   2.06129
    R3        2.83681  -0.00000   0.00000  -0.00036  -0.00036   2.83645
    R4        2.90034   0.00000   0.00000   0.00029   0.00029   2.90063
    R5        2.05328   0.00000   0.00000  -0.00003  -0.00003   2.05325
    R6        2.05371   0.00000   0.00000  -0.00013  -0.00013   2.05358
    R7        2.57501   0.00000   0.00000   0.00359   0.00359   2.57861
    R8        2.06226   0.00000   0.00000   0.00022   0.00022   2.06248
    R9        2.05625  -0.00000   0.00000   0.00001   0.00001   2.05626
   R10        2.05720   0.00000   0.00000  -0.00006  -0.00006   2.05713
   R11        2.68358  -0.00000   0.00000  -0.00000  -0.00000   2.68358
   R12        2.66376  -0.00000   0.00000  -0.00014  -0.00014   2.66362
   R13        2.19813  -0.00000   0.00000  -0.00143  -0.00143   2.19670
   R14        2.05863   0.00000   0.00000  -0.00006  -0.00006   2.05857
   R15        2.05872   0.00000   0.00000  -0.00000  -0.00000   2.05872
   R16        2.05894  -0.00000   0.00000  -0.00000  -0.00000   2.05893
    A1        1.86023   0.00000   0.00000  -0.00175  -0.00175   1.85848
    A2        1.91222   0.00000   0.00000  -0.00019  -0.00019   1.91202
    A3        1.91260   0.00000   0.00000   0.00002   0.00002   1.91262
    A4        1.91057  -0.00000   0.00000   0.00229   0.00229   1.91286
    A5        1.91015   0.00000   0.00000  -0.00018  -0.00018   1.90997
    A6        1.95562  -0.00000   0.00000  -0.00026  -0.00026   1.95536
    A7        2.03210   0.00008   0.00000  -0.00117  -0.00122   2.03087
    A8        2.02316  -0.00008   0.00000   0.00082   0.00085   2.02400
    A9        1.82282  -0.00000   0.00000   0.00287   0.00286   1.82569
   A10        1.96666  -0.00000   0.00000  -0.00025  -0.00023   1.96643
   A11        1.77555  -0.00000   0.00000  -0.00591  -0.00590   1.76964
   A12        1.79945   0.00001   0.00000   0.00372   0.00371   1.80316
   A13        1.91805   0.00000   0.00000  -0.00007  -0.00007   1.91798
   A14        1.91619   0.00000   0.00000   0.00004   0.00004   1.91623
   A15        1.93527  -0.00000   0.00000  -0.00028  -0.00028   1.93499
   A16        1.92481   0.00000   0.00000   0.00018   0.00018   1.92499
   A17        1.83718   0.00000   0.00000   0.00023   0.00023   1.83741
   A18        1.93116  -0.00000   0.00000  -0.00008  -0.00008   1.93108
   A19        1.88039  -0.00000   0.00000  -0.00022  -0.00021   1.88017
   A20        1.81572  -0.00001   0.00000   0.00179   0.00179   1.81751
   A21        1.93849   0.00000   0.00000  -0.00021  -0.00021   1.93828
   A22        1.93108   0.00000   0.00000  -0.00006  -0.00006   1.93101
   A23        1.93737  -0.00000   0.00000   0.00008   0.00008   1.93745
   A24        1.88629  -0.00000   0.00000   0.00009   0.00009   1.88638
   A25        1.88276   0.00000   0.00000  -0.00005  -0.00005   1.88270
   A26        1.88587  -0.00000   0.00000   0.00016   0.00016   1.88603
   A27        3.13080  -0.00003   0.00000  -0.00580  -0.00579   3.12501
   A28        3.04655  -0.00001   0.00000   0.01026   0.01026   3.05681
    D1        0.85157   0.00001   0.00000   0.00025   0.00024   0.85181
    D2       -3.05654   0.00001   0.00000  -0.00059  -0.00059  -3.05713
    D3       -1.09014  -0.00002   0.00000   0.00614   0.00615  -1.08398
    D4        2.88562   0.00001   0.00000  -0.00066  -0.00067   2.88495
    D5       -1.02249   0.00001   0.00000  -0.00149  -0.00150  -1.02399
    D6        0.94392  -0.00002   0.00000   0.00523   0.00525   0.94916
    D7       -1.27513   0.00001   0.00000   0.00053   0.00052  -1.27460
    D8        1.09995   0.00001   0.00000  -0.00031  -0.00031   1.09964
    D9        3.06636  -0.00002   0.00000   0.00642   0.00643   3.07279
   D10       -1.07922   0.00000   0.00000   0.00018   0.00018  -1.07903
   D11        1.01569   0.00000   0.00000   0.00011   0.00011   1.01580
   D12        3.10933   0.00000   0.00000   0.00033   0.00033   3.10966
   D13       -3.11325  -0.00000   0.00000   0.00238   0.00238  -3.11087
   D14       -1.01835  -0.00000   0.00000   0.00232   0.00232  -1.01603
   D15        1.07529  -0.00000   0.00000   0.00254   0.00254   1.07783
   D16        1.04726   0.00000   0.00000  -0.00022  -0.00022   1.04703
   D17       -3.14102   0.00000   0.00000  -0.00029  -0.00029  -3.14132
   D18       -1.04738   0.00000   0.00000  -0.00007  -0.00007  -1.04746
   D19       -0.85868   0.00017   0.00000   0.15106   0.15114  -0.70754
   D20       -2.97528   0.00008   0.00000   0.15433   0.15426  -2.82102
   D21        1.25088   0.00008   0.00000   0.15686   0.15685   1.40772
   D22        1.13830   0.00000   0.00000   0.00439   0.00439   1.14270
   D23       -3.07153   0.00000   0.00000   0.00429   0.00429  -3.06724
   D24       -0.99228   0.00000   0.00000   0.00459   0.00459  -0.98769
   D25       -1.60343  -0.00000   0.00000   0.00840   0.00840  -1.59503
         Item               Value     Threshold  Converged?
 Maximum Force            0.000171     0.000450     YES
 RMS     Force            0.000029     0.000300     YES
 Maximum Displacement     0.233105     0.001800     NO 
 RMS     Displacement     0.094982     0.001200     NO 
 Predicted change in Energy=-2.750587D-05
 GradGradGradGradGradGradGradGradGradGradGradGradGradGradGradGradGradGrad

                          Input orientation:                          
 ---------------------------------------------------------------------
 Center     Atomic      Atomic             Coordinates (Angstroms)
 Number     Number       Type             X           Y           Z
 ---------------------------------------------------------------------
      1          6           0        1.652238    0.022473    0.398476
      2          1           0        1.776736    0.298818    1.445493
      3          1           0        0.956295   -0.817266    0.380669
      4          6           0        1.066595    1.177912   -0.359766
      5          1           0        1.541622    2.143582   -0.210154
      6          1           0        0.821964    0.988418   -1.401488
      7          6           0       -2.373568   -0.228344   -0.180661
      8          1           0       -1.767419   -0.242754   -1.088166
      9          1           0       -2.733653   -1.231171    0.040013
     10          1           0       -3.211889    0.454291   -0.308138
     11          8           0       -1.591155    0.144245    0.944356
     12          8           0       -1.177868    1.478688    0.756689
     13          1           0       -0.152729    1.385118    0.216675
     14          6           0        3.002742   -0.421125   -0.180682
     15          1           0        3.728604    0.390458   -0.146954
     16          1           0        3.406567   -1.259677    0.385535
     17          1           0        2.898651   -0.733652   -1.219235
 ---------------------------------------------------------------------
                    Distance matrix (angstroms):
                    1          2          3          4          5
     1  C    0.000000
     2  H    1.090005   0.000000
     3  H    1.090786   1.747174   0.000000
     4  C    1.500982   2.129804   2.130996   0.000000
     5  H    2.209473   2.489900   3.075435   1.086533   0.000000
     6  H    2.205056   3.080980   2.540594   1.086709   1.808753
     7  C    4.074975   4.488574   3.427813   3.720800   4.577730
     8  H    3.738248   4.390189   3.147405   3.252766   4.173158
     9  H    4.575604   4.965868   3.728683   4.517232   5.452477
    10  H    4.934116   5.290158   4.411923   4.339553   5.045708
    11  O    3.291263   3.408478   2.780602   3.135736   3.891598
    12  O    3.202871   3.255185   3.157126   2.524788   2.961840
    13  H    2.268868   2.532366   2.471300   1.364540   1.904804
    14  C    1.534947   2.160059   2.158701   2.517470   2.951857
    15  H    2.178119   2.520729   3.069639   2.784182   2.803628
    16  H    2.172958   2.491740   2.489896   3.460171   3.926199
    17  H    2.177672   3.070091   2.517823   2.783737   3.337401
                    6          7          8          9         10
     6  H    0.000000
     7  C    3.630751   0.000000
     8  H    2.884243   1.091417   0.000000
     9  H    4.432483   1.088126   1.784198   0.000000
    10  H    4.213392   1.088588   1.783482   1.786253   0.000000
    11  O    3.469691   1.420090   2.076532   2.003723   2.071630
    12  O    2.982855   2.285231   2.591220   3.205842   2.514058
    13  H    1.930246   2.773672   2.638143   3.679312   3.240421
    14  C    2.869315   5.379765   4.858989   5.797508   6.277279
    15  H    3.221796   6.133560   5.611872   6.665238   6.942658
    16  H    3.863619   5.898659   5.475039   6.149999   6.871887
    17  H    2.703954   5.397246   4.693652   5.792760   6.291264
                   11         12         13         14         15
    11  O    0.000000
    12  O    1.409526   0.000000
    13  H    2.034295   1.162446   0.000000
    14  C    4.763323   4.686732   3.657513   0.000000
    15  H    5.436122   5.106299   4.023223   1.089349   0.000000
    16  H    5.221159   5.352891   4.437572   1.089425   1.763576
    17  H    5.060651   5.041501   3.982705   1.089541   1.761316
                   16         17
    16  H    0.000000
    17  H    1.763510   0.000000
 Stoichiometry    C4H11O2(2)
 Framework group  C1[X(C4H11O2)]
 Deg. of freedom    45
 Full point group                 C1      NOp   1
 Largest Abelian subgroup         C1      NOp   1
 Largest concise Abelian subgroup C1      NOp   1
                         Standard orientation:                         
 ---------------------------------------------------------------------
 Center     Atomic      Atomic             Coordinates (Angstroms)
 Number     Number       Type             X           Y           Z
 ---------------------------------------------------------------------
      1          6           0       -1.543823   -0.142952   -0.383730
      2          1           0       -1.546066    0.306724   -1.376654
      3          1           0       -0.919810   -1.035197   -0.449472
      4          6           0       -0.945607    0.818333    0.601672
      5          1           0       -1.328055    1.835030    0.576895
      6          1           0       -0.816916    0.443829    1.613660
      7          6           0        2.376807   -0.851705    0.471698
      8          1           0        1.687517   -0.954545    1.311635
      9          1           0        2.677652   -1.835443    0.117057
     10          1           0        3.249416   -0.278037    0.779078
     11          8           0        1.736522   -0.234536   -0.635458
     12          8           0        1.411681    1.085314   -0.262312
     13          1           0        0.335528    1.001647    0.169168
     14          6           0       -2.973689   -0.547007    0.001350
     15          1           0       -3.628052    0.322846    0.044314
     16          1           0       -3.385278   -1.244068   -0.727723
     17          1           0       -2.993688   -1.029026    0.978261
 ---------------------------------------------------------------------
 Rotational constants (GHZ):           6.4595529           1.3351810           1.2433192
 Standard basis: CC-pVTZ (5D, 7F)
 There are   375 symmetry adapted cartesian basis functions of A   symmetry.
 There are   334 symmetry adapted basis functions of A   symmetry.
   334 basis functions,   499 primitive gaussians,   375 cartesian basis functions
    26 alpha electrons       25 beta electrons
       nuclear repulsion energy       249.6980724860 Hartrees.
 NAtoms=   17 NActive=   17 NUniq=   17 SFac= 1.00D+00 NAtFMM=   60 NAOKFM=F Big=F
 Integral buffers will be    131072 words long.
 Raffenetti 2 integral format.
 Two-electron integral symmetry is turned on.
 Nuclear repulsion after empirical dispersion term =      249.6902288731 Hartrees.
 One-electron integrals computed using PRISM.
 NBasis=   334 RedAO= T EigKep=  7.96D-04  NBF=   334
 NBsUse=   334 1.00D-06 EigRej= -1.00D+00 NBFU=   334
 Initial guess from the checkpoint file:  "/localscratch/353444/Gau-50599.chk"
 B after Tr=    -0.000000   -0.000000   -0.000000
         Rot=    0.999821    0.018237    0.004195    0.002678 Ang=   2.17 deg.
 Initial guess <Sx>= 0.0000 <Sy>= 0.0000 <Sz>= 0.5000 <S**2>= 0.7682 S= 0.5091
 ExpMin= 1.03D-01 ExpMax= 1.53D+04 ExpMxC= 5.22D+02 IAcc=3 IRadAn=         5 AccDes= 0.00D+00
 Harris functional with IExCor=  419 and IRadAn=       5 diagonalized for initial guess.
 HarFok:  IExCor=  419 AccDes= 0.00D+00 IRadAn=         5 IDoV= 1 UseB2=F ITyADJ=14
 ICtDFT=  3500011 ScaDFX=  1.000000  1.000000  1.000000  1.000000
 FoFCou: FMM=F IPFlag=           0 FMFlag=      100000 FMFlg1=           0
         NFxFlg=           0 DoJE=T BraDBF=F KetDBF=T FulRan=T
         wScrn=  0.000000 ICntrl=       500 IOpCl=  0 I1Cent=   200000004 NGrid=           0
         NMat0=    1 NMatS0=      1 NMatT0=    0 NMatD0=    1 NMtDS0=    0 NMtDT0=    0
[...]
   yy         0.622760D+02      0.922836D+01      0.102679D+02
   zx         0.187125D+02      0.277291D+01      0.308528D+01
   zy        -0.199228D+01     -0.295226D+00     -0.328483D+00
   zz         0.670697D+02      0.993871D+01      0.110583D+02

 ----------------------------------------------------------------------
 1\1\GINC-N144\Freq\UB2PLYPD3-FC\CC-pVTZ\C4H11O2(2)\ROOT\25-Jun-2019\0\
 \#N Geom=AllCheck Guess=TCheck SCRF=Check GenChk UB2PLYPD3(FC)/CC-pVTZ
  Freq\\Title Card Required\\0,2\C,1.6294278284,0.0093437681,0.37442582
 8\H,1.7238464151,0.2535324953,1.4325374955\H,0.9329569134,-0.827631468
 6,0.3111732348\C,1.0708987076,1.1894227163,-0.3659906665\H,1.558256358
 3,2.1438370982,-0.1866287539\H,0.8396797689,1.0276736527,-1.4153604912
 \C,-2.3557570585,-0.2404018808,-0.1560959855\H,-1.7380768469,-0.288908
 7203,-1.0547269707\H,-2.7124346715,-1.2354892796,0.1020068524\H,-3.196
 5193333,0.4307136031,-0.3226206668\O,-1.5897589602,0.1842764915,0.9616
 159\O,-1.1841971022,1.513021688,0.7236402046\H,-0.1541480186,1.4056322
 303,0.1965015333\C,2.9955721779,-0.4214138207,-0.1775300207\H,3.722033
 5692,0.3863360404,-0.0973042128\H,3.3800553929,-1.2781304196,0.3747908
 473\H,2.9218968595,-0.7018011943,-1.2277731278\\Version=ES64L-G16RevB.
 01\State=2-A\HF=-308.7908553\MP2=-309.1830443\PUHF=-308.796976\PMP2-0=
 -309.1835475\S2=0.768169\S2-1=0.742771\S2A=0.750147\RMSD=4.999e-10\RMS
 F=5.168e-07\ZeroPoint=0.1420682\Thermal=0.151168\Dipole=0.3166379,-0.4
 554041,-0.7006285\DipoleDeriv=-0.2334336,0.0522872,0.0410638,-0.010210
 8,0.0328167,0.0249423,0.2334366,-0.0158797,0.0512089,0.0303862,0.01974
 53,-0.0051121,0.02859,0.0278448,-0.0417597,-0.0290292,-0.0192424,-0.12
 1113,-0.0180963,-0.0782539,-0.0000148,-0.0506962,-0.0604217,-0.0049189
 ,-0.0352843,0.001368,0.0445207,0.9981204,0.1048095,-0.2161308,-0.26972
 81,0.0848386,0.0954214,-0.2930194,-0.0169968,0.1850476,-0.1050752,-0.1
 095703,0.0163896,0.0166837,-0.0672736,-0.0051056,0.0344163,0.0044433,0
 .0271259,-0.0870476,-0.0245683,0.0229612,0.020763,0.0213095,-0.0433664
 ,-0.0183485,0.0196036,-0.1164019,0.6225862,0.0643749,0.0274369,0.13884
 13,0.3106428,0.0265974,0.3632891,0.1063204,0.3889908,-0.0784455,-0.001
 9071,0.1280071,-0.0188483,0.0374986,0.0074779,-0.0306231,-0.0572543,-0
 .0874879,0.0180648,-0.0565004,-0.0124841,-0.099273,-0.0771501,0.025336
 4,-0.0305108,0.037437,0.0388377,-0.1172806,0.0324491,-0.0360499,0.1394
 296,-0.0095381,0.0233415,-0.0653756,-0.0412243,0.0325653,-0.5642558,0.
 0065703,0.014807,-0.9151602,-0.3193955,0.2174446,-0.0547206,-0.0477516
 ,-0.3728901,0.545752,0.0485549,-0.2915553,0.8067765,-0.089971,-0.29471
 15,-0.5446403,-0.0457644,-0.0842789,-1.0615645,-0.0715008,0.3319992,0.
 0619299,0.1031551,-0.0240045,0.626065,0.036977,-0.0418922,0.1584421,-0
 .0053746,0.0158786,0.1555585,0.0965853,-0.0247747,-0.175611,0.0462363,
 0.1342594,-0.053733,-0.0549957,0.0046496,-0.1323099,-0.0630386,-0.0094
 192,0.0025616,-0.0244899,0.0529018,-0.0853366,0.07695,-0.0024313,0.126
 3001,-0.072422,0.0660089,-0.0128505,0.0798896,0.0077467,0.0309169,-0.0
 030699,-0.0394144,0.0013537,0.0445192,-0.0385098,0.0302447,-0.0636718,
 -0.1391406\Polar=101.1234631,1.8940125,61.826293,-8.2852252,-0.3226885
 ,56.3732486\PG=C01 [X(C4H11O2)]\NImag=1\\0.46406468,0.06530791,0.52445
 522,0.02959226,0.02409073,0.56184458,-0.04878579,-0.00925917,-0.024540
 74,0.05592690,-0.00890820,-0.06502903,-0.05981802,0.00330288,0.0691631
 2,-0.02491980,-0.05850300,-0.29258394,0.02679070,0.06251293,0.31959182
 ,-0.14932206,-0.12835088,-0.01419840,-0.00233120,-0.00200658,-0.000524
 13,0.16811566,-0.12849926,-0.19932810,-0.01437873,-0.00436391,-0.00595
 327,-0.00087484,0.13629069,0.22210872,-0.01383380,-0.01341094,-0.05364
 187,-0.02035128,-0.02473808,-0.00181989,0.01328433,0.01341965,0.052285
 49,-0.07096332,0.02831839,-0.03613465,-0.00348763,0.00461263,-0.002861
 13,0.00822479,-0.01528006,0.01088788,0.23105463,0.03460034,-0.16383727
 ,0.05168912,-0.00183202,0.00599553,-0.00291281,0.01172833,-0.02438814,
 0.01348412,0.08213624,0.53010314,-0.04137864,0.05321874,-0.11234786,-0
 .01408677,0.02852922,-0.01690383,0.00190399,-0.00221502,0.00228187,0.1
 3756209,0.01107298,0.50116117,0.00871566,0.01433421,0.00219284,0.00006
 543,-0.00071017,0.00024663,-0.00091377,0.00222289,-0.00140086,-0.08995
 217,-0.12322876,-0.03574735,0.09266957,-0.01451587,-0.01839372,-0.0043
 6556,0.00018049,0.00121635,0.00017969,0.00301412,-0.00287666,0.0027726
 9,-0.11018655,-0.25794599,-0.04060682,0.12207215,0.27784545,0.00766560
 ,0.01257390,0.00469437,0.00099788,-0.00066356,0.00088354,-0.00108557,0
 .00362882,-0.00063427,-0.03136453,-0.03590956,-0.05581810,0.03307579,0
 .04183516,0.05392924,-0.00149287,-0.00267288,-0.01378939,0.00028491,0.
 00272744,-0.00065662,0.00043348,0.00081110,0.00052441,-0.03840839,-0.0
 1179473,-0.05438286,0.00020250,-0.00252357,-0.01484167,0.04239188,0.00
 516160,0.00723283,0.02547153,0.00264750,-0.00389498,0.00296479,-0.0008
 4196,0.00117486,-0.00066105,-0.01357784,-0.06110756,-0.04306934,-0.004
 00734,-0.00153840,-0.02553105,0.01154657,0.05812320,-0.00072396,-0.004
 43857,-0.01233784,-0.00123822,0.00299388,-0.00007181,0.00031649,0.0000
 1987,0.00052068,-0.06868102,-0.04195798,-0.30452015,0.00056549,0.00114
 994,-0.00214726,0.06904955,0.04354256,0.32410814,0.00089344,0.00003650
 ,-0.00103022,0.00002727,-0.00000162,0.00017178,-0.00047714,0.00034649,
 0.00004081,-0.00574577,0.00149918,0.00116226,0.00081285,-0.00012209,-0
 .00036053,0.00112577,-0.00021268,-0.00024225,0.54128237,0.00060808,0.0
 0030234,-0.00062655,-0.00013061,-0.00004951,-0.00001890,-0.00015537,0.
 00011174,0.00024171,-0.00394184,0.00125185,0.00230009,0.00065703,-0.00
 018979,-0.00043191,0.00057290,-0.00002550,-0.00038878,-0.02487850,0.59
 855511,0.00217807,0.00036326,-0.00189605,-0.00033412,-0.00000409,-0.00
 008515,-0.00036391,-0.00008817,0.00063870,-0.00777202,0.00256276,0.005
 56394,0.00117978,-0.00069806,-0.00099252,0.00087999,-0.00004026,-0.001
 14123,-0.05845026,-0.05753449,0.50567311,-0.00022352,-0.00000950,0.000
 14659,0.00004559,0.00004308,-0.00002437,0.00000845,0.00013552,-0.00005
 538,0.00056085,0.00006283,0.00032517,0.00008296,-0.00004496,0.00005386
 ,-0.00067318,-0.00014393,0.00003706,-0.14675078,0.00551613,0.12752532,
 0.15045953,0.00008076,0.00017381,0.00004709,-0.00001282,-0.00006415,0.
 00000645,0.00001334,-0.00006634,0.00002390,0.00035367,0.00003379,-0.00
 012297,0.00007052,-0.00005540,0.00008088,-0.00044501,0.00004548,0.0001
 7605,0.00642775,-0.05299282,-0.00235255,-0.00496398,0.04810666,-0.0007
 1009,-0.00025442,0.00042948,0.00014139,0.00007787,0.00003540,-0.000024
 32,0.00021317,-0.00024363,0.00257869,-0.00076325,-0.00117402,-0.000283
 00,0.00022041,0.00028604,-0.00038838,-0.00000025,0.00044977,0.12308014
 ,-0.00632632,-0.20757573,-0.12943318,0.01035333,0.24144966,-0.00029586
 ,-0.00017262,0.00016169,0.00002692,0.00001845,-0.00001854,0.00001341,0
 .00003189,0.00001353,0.00049805,-0.00017137,-0.00013574,-0.00010674,0.
 00006567,-0.00000092,-0.00003662,0.00003673,-0.00002833,-0.07688748,-0
 .07268863,0.01999563,-0.00504882,-0.01700307,0.00460082,0.08094295,-0.
 00027812,-0.00004735,0.00019870,0.00002340,-0.00000440,-0.00000676,0.0
 0001463,0.00000773,-0.00001875,0.00058066,-0.00013847,-0.00025660,-0.0
 0008172,0.00006325,0.00004869,-0.00008595,0.00001459,0.00004682,-0.077
 51104,-0.27216917,0.06120224,0.00182916,0.00335794,-0.00017226,0.09010
 150,0.29666617,-0.00022501,0.00007105,0.00018856,0.00002471,-0.0000391
 6,0.00000594,0.00000616,0.00002249,-0.00001816,0.00050968,-0.00004306,
 -0.00028835,-0.00000705,0.00006185,0.00009238,-0.00023201,0.00001830,0
 .00015982,0.02465647,0.07121081,-0.07045417,0.00690307,0.02370868,-0.0
 0388324,-0.01905452,-0.06408175,0.07170846,-0.00007176,-0.00001872,0.0
 0016916,0.00000691,0.00000105,-0.00001124,0.00009690,-0.00008002,-0.00
 001235,0.00102323,-0.00028749,-0.00032281,-0.00017284,0.00001506,0.000
 06051,-0.00023316,0.00006570,0.00002531,-0.20218938,0.12665640,-0.0198
 1981,-0.01328155,0.01355070,-0.00112222,0.01081232,-0.00697817,0.00241
 045,0.22119012,0.00018511,-0.00009176,-0.00014647,0.00001430,0.0000152
 0,0.00001569,-0.00000504,0.00000692,-0.00000602,-0.00055051,0.00011460
 ,0.00037855,0.00007728,-0.00002272,-0.00004569,0.00004020,-0.00001924,
 -0.00001088,0.13220874,-0.16064758,0.02357310,-0.00066127,0.00065837,0
 .00107796,0.02220886,-0.01508275,0.00247830,-0.13989158,0.16391907,-0.
 00029428,-0.00014677,0.00024043,0.00010560,0.00005146,0.00003477,0.000
 06633,0.00002953,-0.00018295,0.00099406,-0.00032447,-0.00075728,-0.000
 14984,0.00008336,0.00015144,-0.00010902,-0.00004819,0.00017220,-0.0178
 6017,0.01695250,-0.05212141,0.02030451,-0.01639708,0.00492848,-0.00566
 078,0.00522091,-0.00045902,0.03404070,-0.02175703,0.06250023,-0.000326
 68,-0.00009092,0.00149360,-0.00010050,0.00011842,-0.00031077,-0.000326
 60,-0.00057992,-0.00023340,0.00790832,-0.00286240,-0.00225600,-0.00120
 038,0.00064441,0.00092101,-0.00167598,0.00022527,0.00079642,-0.1040427
 6,0.00011816,-0.07716980,0.01259693,-0.00047043,0.00276645,-0.00793467
 ,-0.00522664,-0.00986069,-0.01923264,-0.01360970,-0.03435220,0.1801796
 8,-0.00687614,-0.00206927,0.00508026,-0.00026512,0.00021369,-0.0007616
 0,0.00032866,0.00207395,-0.00018465,0.03759528,-0.00917520,-0.01512687
 ,-0.00452658,0.00156937,0.00251505,-0.00546944,0.00060047,0.00204738,-
 0.01565457,-0.06918219,-0.02453327,-0.00577389,-0.00251511,-0.00886206
 ,-0.02023896,-0.01385389,-0.02732633,0.00327042,0.00700340,0.01341169,
 0.09625008,0.28809437,-0.00036401,-0.00025353,0.00037782,0.00021994,0.
 00001290,0.00014594,0.00013467,0.00007745,-0.00025193,-0.00129554,0.00
 048860,-0.00079099,0.00011570,0.00006195,-0.00024382,0.00057792,0.0001
 1098,-0.00001552,-0.06313530,0.00751886,-0.18618528,-0.02518934,-0.014
 63489,-0.03774731,0.00375272,0.00144808,0.00596828,-0.01714329,-0.0048
 6596,-0.01579665,0.10250754,-0.01625520,0.28857440,0.00886089,-0.00201
 059,-0.00345782,0.00030281,-0.00014283,0.00029044,-0.00022771,-0.00067
 530,-0.00011102,-0.12089645,0.02499494,0.05480146,0.00765973,-0.002573
 96,-0.00447697,0.00773235,-0.00052376,-0.00193680,-0.01421313,-0.03902
 068,0.00166295,0.00296836,0.00351316,0.00245138,-0.00207946,-0.0021193
 8,-0.00491089,0.00379151,-0.00066764,0.00429399,-0.04880900,-0.0148970
 4,-0.00570047,0.10681021,0.00737230,0.00229394,-0.00588362,0.00023385,
 -0.00011115,0.00077930,-0.00050922,-0.00181523,0.00019762,-0.02562504,
 0.01051517,0.00913445,0.00438459,-0.00057758,-0.00175971,0.00511712,-0
 .00071999,-0.00159336,-0.01998449,-0.04373316,-0.00373422,0.00337524,0
 .00293855,0.00462165,-0.00232174,0.00120078,-0.00561783,0.00347096,0.0
 0448091,0.00295926,-0.04795605,-0.20180596,0.01361067,0.01546258,0.271
 08231,-0.00620475,0.00090774,0.00249201,0.00048565,-0.00026269,0.00021
 664,0.00030306,0.00025454,-0.00010590,0.06621470,-0.01340579,-0.026998
 24,-0.00409702,0.00176410,0.00244646,-0.00423023,0.00045377,0.00234002
 ,-0.00287873,-0.02907488,0.01051335,-0.00138383,-0.00115333,0.00173763
 ,-0.00361635,-0.00338741,-0.00240097,0.00086851,-0.00063106,0.00079268
 ,0.00623408,0.03981152,-0.04886723,-0.01541787,0.01371558,0.05160503,-
 0.02560942,0.00656242,0.00938478,0.00044543,-0.00034772,-0.00025625,0.
 00107071,0.00020534,0.00005319,0.10051789,-0.02649700,-0.05143304,-0.0
 1900435,0.00378095,0.00954827,-0.01116202,0.00057653,0.00250691,0.0060
 4428,0.00659842,0.01033541,-0.00080823,-0.00109791,-0.00368347,0.00007
 797,-0.00028364,-0.00022223,-0.00170430,0.00065568,-0.00134869,-0.0164
 0670,-0.06404556,0.00551590,0.04848426,0.05765047,-0.03681304,-0.08361
 187,0.01178392,-0.00486980,-0.00340417,-0.00014182,0.00026288,-0.00005
 112,0.00050563,-0.00047302,-0.00007547,-0.01111375,-0.02008783,0.00386
 161,-0.00991063,-0.00029220,0.00355113,0.00319079,-0.00062410,-0.00167
 410,-0.00173569,-0.00089457,0.00218890,0.00054832,0.00040157,-0.000480
 14,-0.00000660,-0.00012168,-0.00054361,0.00015713,-0.00028709,-0.00016
 020,-0.02690420,-0.00472540,0.01261080,0.02083517,-0.04016603,-0.01037
 821,0.01173196,0.07360381,0.00425755,-0.00010661,-0.00217529,-0.000940
 53,0.00047533,-0.00019684,-0.00037195,-0.00015179,0.00010206,-0.060139
 65,0.01241660,0.00519929,0.00422335,-0.00220724,-0.00254636,0.01700161
 ,-0.00270192,-0.00864782,-0.00568446,-0.00402760,-0.00256303,0.0008846
 4,0.00026074,0.00147938,0.00009246,-0.00013937,-0.00053410,0.00092344,
 -0.00014210,0.00053853,0.00974576,0.03319027,-0.00514305,-0.02948234,-
 0.02956459,0.00739192,0.06109887,-0.00670690,0.00525528,-0.15274880,0.
 01596436,0.03742538,0.00021759,-0.00059355,-0.00023459,-0.02224025,0.0
 0823270,0.00990777,-0.02007664,0.01414675,0.00009971,0.00131152,-0.000
 89580,0.00016225,0.00153830,-0.00098051,0.00022439,-0.00024191,-0.0001
 1957,-0.00032071,0.00007453,-0.00002160,0.00010782,0.00006796,0.000078
 74,0.00003953,0.00002970,-0.00004761,0.00003995,-0.00037431,0.00105013
 ,0.00010176,-0.00105820,-0.00150146,0.00127190,0.00343790,0.00068142,-
 0.00252889,0.47580451,0.02469506,-0.07847882,-0.01532735,0.00868759,-0
 .00238652,-0.00307246,-0.02267407,0.00795157,0.00885502,0.02476988,-0.
 01382648,-0.00465435,-0.00081482,0.00075631,0.00040297,-0.00118470,0.0
 0081700,-0.00024071,-0.00030432,-0.00025244,-0.00073460,0.00009187,-0.
 00002961,0.00027657,0.00012569,0.00009023,0.00006545,0.00004555,-0.000
 03721,0.00010174,0.00017426,0.00357897,0.00006929,-0.00221837,-0.00338
 254,0.00132346,0.00432556,-0.00169520,-0.00085464,0.03089587,0.5623149
 7,0.02937020,-0.00948480,-0.09039766,0.03143960,-0.00957938,-0.0109318
 0,-0.00132839,0.00030378,0.00054358,-0.00979137,0.00268473,0.00444452,
 0.00022294,-0.00006789,-0.00033857,0.00003658,0.00043665,0.00044188,0.
 00068237,0.00031425,0.00100017,-0.00007962,0.00001956,-0.00023561,-0.0
 0012065,-0.00013420,-0.00010615,-0.00008846,0.00010904,-0.00009438,-0.
 00046796,-0.00342751,-0.00014118,0.00260162,0.00362336,-0.00167033,-0.
 00607433,0.00115377,0.00242858,0.03880595,-0.01282878,0.55645890,-0.02
 141065,-0.02118107,-0.00269881,0.00144882,0.00003866,-0.00000673,-0.00
 475348,0.00248500,0.00249397,0.00139727,-0.00189804,0.00020211,-0.0001
 9051,0.00082207,-0.00012777,-0.00005359,0.00011100,-0.00005622,0.00007
 192,0.00000287,-0.00004284,0.00002076,-0.00002238,0.00005854,0.0000268
 4,0.00000506,0.00000323,-0.00002240,0.00001376,0.00001185,-0.00008342,
 0.00058749,-0.00000484,-0.00018360,-0.00046985,0.00005078,0.00027945,-
 0.00008399,0.00007656,-0.16037888,-0.13043427,-0.01490391,0.17760494,0
 .00768202,0.00751887,0.00150675,-0.00071199,0.00043288,0.00052092,0.00
 266957,0.00050956,-0.00050923,0.00069561,0.00159750,-0.00013634,-0.000
 38489,0.00010956,-0.00022133,-0.00002546,-0.00005886,0.00000780,0.0000
 4711,0.00001045,0.00005200,-0.00001220,-0.00000510,-0.00001653,-0.0000
 0272,-0.00000905,-0.00001087,-0.00001105,0.00001236,-0.00000303,-0.000
 01153,-0.00036976,-0.00000083,0.00030105,0.00031774,-0.00019565,-0.000
 45892,0.00018212,0.00022447,-0.13115527,-0.19769349,-0.01612411,0.1424
 4842,0.21222304,0.00913417,0.00990726,0.00061227,-0.00040981,0.0006811
 8,0.00028194,0.00267117,-0.00093345,-0.00009153,-0.00077672,0.00019125
 ,-0.00012826,-0.00002313,-0.00020343,0.00018052,-0.00003753,-0.0001205
 0,-0.00001542,-0.00004653,-0.00002111,-0.00005020,-0.00000924,-0.00000
 275,-0.00000444,-0.00000204,0.00000275,-0.00000112,0.00000703,-0.00000
 472,0.00000873,0.00011137,-0.00007205,0.00000439,0.00005510,0.00004574
 ,-0.00002219,-0.00009221,0.00009425,-0.00005048,-0.01521740,-0.0161480
 1,-0.05034708,0.01370405,0.01832751,0.05004398,-0.01242188,0.02400573,
 -0.01520914,0.00140438,-0.00039781,0.00003213,0.00112128,-0.00068510,-
 0.00073899,-0.00323975,0.00061195,0.00244921,0.00011503,0.00021826,-0.
 00010794,0.00015845,-0.00018590,0.00000971,0.00033236,0.00018488,0.000
 43254,-0.00004474,0.00001424,-0.00011376,-0.00007871,-0.00006814,-0.00
 004146,-0.00005236,0.00003694,-0.00005396,-0.00022699,-0.00163220,-0.0
 0002972,0.00108597,0.00158966,-0.00072448,-0.00232280,0.00065679,0.000
 80466,-0.07661444,0.07037967,-0.04765634,0.00809203,-0.01687758,0.0123
 2325,0.08443072,0.00183826,-0.00636551,0.00409669,-0.00022747,-0.00014
 234,-0.00029411,0.00005657,0.00060951,-0.00012816,0.00194608,0.0005675
 3,-0.00112936,-0.00018456,0.00035340,-0.00006283,-0.00004561,-0.000002
 28,0.00004333,-0.00019868,-0.00010801,-0.00022711,0.00002073,-0.000001
 93,0.00004958,0.00003334,0.00003226,0.00002041,0.00003609,-0.00002004,
 0.00003134,0.00023270,0.00082534,-0.00002303,-0.00035454,-0.00075396,0
 .00022604,0.00074507,-0.00025591,-0.00002074,0.07053186,-0.21202742,0.
 10765875,0.00888833,-0.01851286,0.01275994,-0.07955318,0.22805403,0.00
 654894,-0.01160429,0.00592450,-0.00077905,0.00000363,0.00059984,-0.000
 91666,0.00023712,0.00023114,0.00101746,-0.00014996,0.00005083,-0.00013
 199,0.00003787,0.00003758,0.00017350,-0.00019547,0.00034362,-0.0000345
 4,-0.00001989,-0.00013559,0.00000048,-0.00000044,0.00002846,0.00000769
 ,0.00001452,0.00001797,0.00000236,-0.00001529,0.00000989,0.00000569,0.
 00037421,0.00004216,-0.00044933,-0.00043573,0.00030955,0.00104949,-0.0
 0006531,-0.00037284,-0.04788143,0.10771799,-0.11798164,0.00165416,-0.0
 0337154,0.00114920,0.04994120,-0.11817057,0.12506960,0.00113793,0.0092
 3682,0.03049288,-0.00549783,0.00224589,0.00229250,0.00150753,-0.000598
 06,-0.00046881,0.00158510,-0.00120875,0.00123721,-0.00009450,0.0000496
 1,-0.00011929,-0.00013181,0.00010301,-0.00062450,-0.00004191,0.0000203
 3,0.00008377,0.00001284,0.00001306,-0.00002682,0.00000196,-0.00000036,
 0.00000057,0.00000971,-0.00000754,-0.00002804,0.00005568,0.00029747,-0
 .00006363,-0.00022854,-0.00028891,-0.00006237,0.00027179,-0.00019445,0
 .00003893,-0.04874858,-0.00656046,-0.02264824,-0.00186551,-0.00419216,
 -0.02139153,-0.00173854,-0.00376498,-0.01020799,0.05376468,-0.00023775
 ,-0.00346635,-0.00823040,0.00185491,0.00033571,-0.00048418,-0.00007842
 ,0.00034621,0.00073766,-0.00073286,0.00032784,-0.00117798,0.00003080,-
 0.00002122,-0.00001096,0.00024123,-0.00001752,0.00027675,0.00003790,0.
 00001325,0.00000457,-0.00001316,0.00001431,-0.00001530,-0.00001640,-0.
 00000618,0.00000526,-0.00000203,-0.00000243,-0.00000502,-0.00005151,-0
 .00026276,0.00002384,0.00009719,0.00023622,0.00003228,-0.00010164,0.00
 004246,0.00005609,-0.00626645,-0.06569931,-0.06465722,-0.00131306,-0.0
 0626494,-0.02450386,0.00170178,0.00774820,0.02564314,0.00484948,0.0666
 7650,-0.00009244,-0.00292976,-0.01142352,0.00247506,-0.00023344,0.0007
 9744,0.00012713,0.00043559,0.00038659,-0.00094793,0.00087673,0.0010254
 6,0.00001771,-0.00001800,0.00001932,0.00042417,-0.00063056,0.00036090,
 -0.00007083,-0.00006780,-0.00018891,-0.00000574,-0.00001265,0.00003966
 ,0.00001333,0.00001441,0.00000387,0.00001270,-0.00000743,0.00003432,0.
 00006889,0.00011916,0.00006997,-0.00021343,-0.00009857,0.00021955,0.00
 043044,0.00007877,-0.00016524,-0.02200338,-0.06495160,-0.29307323,-0.0
 0041412,-0.00005001,-0.00157030,-0.00131692,-0.00483016,-0.01532426,0.
 02149536,0.07230533,0.31878838\\0.00000011,-0.00000008,-0.00000189,-0.
 00000040,-0.00000050,-0.00000016,0.00000046,0.00000065,0.00000106,-0.0
 0000067,-0.00000028,0.00000014,-0.00000009,0.00000008,0.00000090,0.000
 00063,0.00000021,-0.00000022,-0.00000006,0.00000027,0.00000005,0.00000
 010,0.00000022,-0.00000015,-0.00000006,0.,-0.00000011,0.00000003,0.000
 00009,0.00000022,-0.00000112,0.00000028,0.00000045,-0.00000038,-0.0000
 0059,0.00000087,0.00000115,-0.00000061,0.00000052,0.00000026,0.0000001
 7,-0.00000052,0.00000005,-0.00000006,-0.00000021,-0.00000006,-0.000000
 14,-0.00000053,0.00000003,0.00000030,-0.00000042\\\@


 MY DESCRIPTION OF EXPERIENCE IS NOT WHAT HAPPENS
 TO A MAN.  EXPERIENCE IS WHAT A MAN DOES WITH WHAT
 HAPPENS TO HIM.
                         - CHUCK KNOX, SEATTLE SEAHAWKS, 1985
 Job cpu time:       2 days  2 hours 34 minutes 27.0 seconds.
 Elapsed time:       0 days  1 hours 18 minutes 41.6 seconds.
 File lengths (MBytes):  RWF=  75938 Int=      0 D2E=      0 Chk=     18 Scr=      1
 Normal termination of Gaussian 16 at Tue Jun 25 00:11:13 2019.
