 Entering Gaussian System, Link 0=g16
 Initial command:
 /ichec/packages/gaussian/16b01/l1.exe "/localscratch/353444/Gau-3634.inp" -scrdir="/localscratch/353444/"
 Entering Link 1 = /ichec/packages/gaussian/16b01/l1.exe PID=      3776.
  
 Copyright (c) 1988-2017, Gaussian, Inc.  All Rights Reserved.
  
 This is part of the Gaussian(R) 16 program.  It is based on
 the Gaussian(R) 09 system (copyright 2009, Gaussian, Inc.),
 the Gaussian(R) 03 system (copyright 2003, Gaussian, Inc.),
 the Gaussian(R) 98 system (copyright 1998, Gaussian, Inc.),
 the Gaussian(R) 94 system (copyright 1995, Gaussian, Inc.),
 the Gaussian 92(TM) system (copyright 1992, Gaussian, Inc.),
 the Gaussian 90(TM) system (copyright 1990, Gaussian, Inc.),
 the Gaussian 88(TM) system (copyright 1988, Gaussian, Inc.),
 the Gaussian 86(TM) system (copyright 1986, Carnegie Mellon
 University), and the Gaussian 82(TM) system (copyright 1983,
 Carnegie Mellon University). Gaussian is a federally registered
 trademark of Gaussian, Inc.
  
 This software contains proprietary and confidential information,
 including trade secrets, belonging to Gaussian, Inc.
  
 This software is provided under written license and may be
 used, copied, transmitted, or stored only in accord with that
 written license.
  
 The following legend is applicable only to US Government
 contracts under FAR:
  
                    RESTRICTED RIGHTS LEGEND
  
 Use, reproduction and disclosure by the US Government is
 subject to restrictions as set forth in subparagraphs (a)
 and (c) of the Commercial Computer Software - Restricted
 Rights clause in FAR 52.227-19.
  
 Gaussian, Inc.
 340 Quinnipiac St., Bldg. 40, Wallingford CT 06492
  
  
 ---------------------------------------------------------------
 Warning -- This program may not be used in any manner that
 competes with the business of Gaussian, Inc. or will provide
 assistance to any competitor of Gaussian, Inc.  The licensee
 of this program is prohibited from giving any competitor of
 Gaussian, Inc. access to this program.  By using this program,
 the user acknowledges that Gaussian, Inc. is engaged in the
 business of creating and licensing software in the field of
 computational chemistry and represents and warrants to the
 licensee that it is not a competitor of Gaussian, Inc. and that
 it will not use this program in any manner prohibited above.
 ---------------------------------------------------------------
  

 Cite this work as:
 Gaussian 16, Revision B.01,
 M. J. Frisch, G. W. Trucks, H. B. Schlegel, G. E. Scuseria, 
 M. A. Robb, J. R. Cheeseman, G. Scalmani, V. Barone, 
 G. A. Petersson, H. Nakatsuji, X. Li, M. Caricato, A. V. Marenich, 
 J. Bloino, B. G. Janesko, R. Gomperts, B. Mennucci, H. P. Hratchian, 
 J. V. Ortiz, A. F. Izmaylov, J. L. Sonnenberg, D. Williams-Young, 
 F. Ding, F. Lipparini, F. Egidi, J. Goings, B. Peng, A. Petrone, 
 T. Henderson, D. Ranasinghe, V. G. Zakrzewski, J. Gao, N. Rega, 
 G. Zheng, W. Liang, M. Hada, M. Ehara, K. Toyota, R. Fukuda, 
 J. Hasegawa, M. Ishida, T. Nakajima, Y. Honda, O. Kitao, H. Nakai, 
 T. Vreven, K. Throssell, J. A. Montgomery, Jr., J. E. Peralta, 
 F. Ogliaro, M. J. Bearpark, J. J. Heyd, E. N. Brothers, K. N. Kudin, 
 V. N. Staroverov, T. A. Keith, R. Kobayashi, J. Normand, 
 K. Raghavachari, A. P. Rendell, J. C. Burant, S. S. Iyengar, 
 J. Tomasi, M. Cossi, J. M. Millam, M. Klene, C. Adamo, R. Cammi, 
 J. W. Ochterski, R. L. Martin, K. Morokuma, O. Farkas, 
 J. B. Foresman, and D. J. Fox, Gaussian, Inc., Wallingford CT, 2016.
 
 ******************************************
 Gaussian 16:  ES64L-G16RevB.01 20-Dec-2017
                24-Jun-2019 
 ******************************************
 %mem=80GB
 %nproc=40
 Will use up to   40 processors via shared memory.
 ----------------------------------------------------------------------
 # opt=(calcfc,ts,noeigentest,maxcyc=500) freq=noraman uB2PLYPD3/cc-pvt
 z
 ----------------------------------------------------------------------
 1/5=1,6=500,10=4,11=1,18=20,38=1/1,3;
 2/9=110,12=2,17=6,18=5,40=1/2;
 3/5=16,6=1,11=2,25=1,30=1,71=2,74=-60,116=2,140=1/1,2,3;
 4//1;
 5/5=2,38=5/2;
 8/6=3,8=1,10=1,19=11,30=-1/1;
 9/15=3,16=-3/6;
 11/6=1,8=1,15=11,17=12,24=-1,27=1,28=-2,29=300,32=6,42=3/1,2,10;
 10/6=2,21=1/2;
 8/6=4,8=1,10=1,19=11,30=-1/11,4;
 10/5=1,20=4/2;
 11/12=2,14=11,16=1,17=2,28=-2,42=3,76=2/2,10,12;
 6/7=2,8=2,9=2,10=2/1;
 7/10=1,12=2,25=1,44=2/1,2,3,16;
 1/5=1,6=500,10=4,11=1,18=20/3(2);
 2/9=110/2;
 99//99;
 2/9=110/2;
 3/5=16,6=1,11=2,25=1,30=1,71=1,74=-60,116=2/1,2,3;
 4/5=5,16=3,69=1/1;
 5/5=2,38=5/2;
 8/6=4,10=1/1;
 9/15=2,16=-3/6;
 10/5=1/2;
 7/12=2/1,2,3,16;
 1/5=1,6=500,11=1,18=20/3(-8);
 2/9=110/2;
 6/7=2,8=2,9=2,10=2/1;
 99/9=10/99;
 -------------------
 Title Card Required
 -------------------
 Symbolic Z-matrix:
 Charge =  0 Multiplicity = 2
 C                    -1.25307  -1.19685  -0.39367 
 H                    -1.48549  -2.174     0.01668 
 H                    -1.44558  -1.11331  -1.45868 
 C                     1.75617   1.06819  -0.34192 
 H                     0.94823   1.22066  -1.05566 
 H                     1.89096   1.96085   0.26469 
 H                     2.67805   0.82134  -0.86519 
 O                     1.42219   0.03404   0.58026 
 O                     1.26774  -1.15032  -0.13704 
 H                     0.0551   -1.21997  -0.30622 
 C                    -1.62745  -0.05491   0.41021 
 C                    -1.9321    1.15562  -0.08545 
 H                    -1.61816  -0.18677   1.48498 
 H                    -1.94843   1.33551  -1.15215 
 H                    -2.18081   1.98351   0.56093 
 
 Add virtual bond connecting atoms H10        and O9         Dist= 2.32D+00.
 Add virtual bond connecting atoms H10        and C1         Dist= 2.48D+00.

 GradGradGradGradGradGradGradGradGradGradGradGradGradGradGradGradGradGrad
 Berny optimization.
 Initialization pass.
                           ----------------------------
                           !    Initial Parameters    !
                           ! (Angstroms and Degrees)  !
 --------------------------                            --------------------------
 ! Name  Definition              Value          Derivative Info.                !
 --------------------------------------------------------------------------------
 ! R1    R(1,2)                  1.085          calculate D2E/DX2 analytically  !
 ! R2    R(1,3)                  1.0855         calculate D2E/DX2 analytically  !
 ! R3    R(1,10)                 1.3113         calculate D2E/DX2 analytically  !
 ! R4    R(1,11)                 1.4458         calculate D2E/DX2 analytically  !
 ! R5    R(4,5)                  1.0888         calculate D2E/DX2 analytically  !
 ! R6    R(4,6)                  1.0877         calculate D2E/DX2 analytically  !
 ! R7    R(4,7)                  1.0884         calculate D2E/DX2 analytically  !
 ! R8    R(4,8)                  1.4253         calculate D2E/DX2 analytically  !
 ! R9    R(8,9)                  1.3932         calculate D2E/DX2 analytically  !
 ! R10   R(9,10)                 1.2264         calculate D2E/DX2 analytically  !
 ! R11   R(11,12)                1.3431         calculate D2E/DX2 analytically  !
 ! R12   R(11,13)                1.0829         calculate D2E/DX2 analytically  !
 ! R13   R(12,14)                1.0819         calculate D2E/DX2 analytically  !
 ! R14   R(12,15)                1.0794         calculate D2E/DX2 analytically  !
 ! A1    A(2,1,3)              113.7275         calculate D2E/DX2 analytically  !
 ! A2    A(2,1,10)              99.939          calculate D2E/DX2 analytically  !
 ! A3    A(2,1,11)             116.4594         calculate D2E/DX2 analytically  !
 ! A4    A(3,1,10)             104.1058         calculate D2E/DX2 analytically  !
 ! A5    A(3,1,11)             116.0276         calculate D2E/DX2 analytically  !
 ! A6    A(10,1,11)            103.6014         calculate D2E/DX2 analytically  !
 ! A7    A(5,4,6)              110.0384         calculate D2E/DX2 analytically  !
 ! A8    A(5,4,7)              110.1898         calculate D2E/DX2 analytically  !
 ! A9    A(5,4,8)              110.6017         calculate D2E/DX2 analytically  !
 ! A10   A(6,4,7)              110.4447         calculate D2E/DX2 analytically  !
 ! A11   A(6,4,8)              105.2885         calculate D2E/DX2 analytically  !
 ! A12   A(7,4,8)              110.1803         calculate D2E/DX2 analytically  !
 ! A13   A(4,8,9)              108.0393         calculate D2E/DX2 analytically  !
 ! A14   A(8,9,10)             103.2335         calculate D2E/DX2 analytically  !
 ! A15   A(1,11,12)            124.4311         calculate D2E/DX2 analytically  !
 ! A16   A(1,11,13)            116.9649         calculate D2E/DX2 analytically  !
 ! A17   A(12,11,13)           118.5538         calculate D2E/DX2 analytically  !
 ! A18   A(11,12,14)           121.141          calculate D2E/DX2 analytically  !
 ! A19   A(11,12,15)           121.505          calculate D2E/DX2 analytically  !
 ! A20   A(14,12,15)           117.3505         calculate D2E/DX2 analytically  !
 ! A21   L(1,10,9,5,-1)        177.3109         calculate D2E/DX2 analytically  !
 ! A22   L(1,10,9,5,-2)        174.4281         calculate D2E/DX2 analytically  !
 ! D1    D(2,1,9,8)           -125.4775         calculate D2E/DX2 analytically  !
 ! D2    D(3,1,9,8)            115.7114         calculate D2E/DX2 analytically  !
 ! D3    D(11,1,9,8)            -5.5349         calculate D2E/DX2 analytically  !
 ! D4    D(2,1,11,12)         -151.8012         calculate D2E/DX2 analytically  !
 ! D5    D(2,1,11,13)           30.82           calculate D2E/DX2 analytically  !
 ! D6    D(3,1,11,12)          -13.7932         calculate D2E/DX2 analytically  !
 ! D7    D(3,1,11,13)          168.828          calculate D2E/DX2 analytically  !
 ! D8    D(10,1,11,12)          99.6099         calculate D2E/DX2 analytically  !
 ! D9    D(10,1,11,13)         -77.7689         calculate D2E/DX2 analytically  !
 ! D10   D(5,4,8,9)             62.5934         calculate D2E/DX2 analytically  !
 ! D11   D(6,4,8,9)           -178.5744         calculate D2E/DX2 analytically  !
 ! D12   D(7,4,8,9)            -59.4787         calculate D2E/DX2 analytically  !
 ! D13   D(4,8,9,10)           -96.9975         calculate D2E/DX2 analytically  !
 ! D14   D(1,11,12,14)           2.3191         calculate D2E/DX2 analytically  !
 ! D15   D(1,11,12,15)        -178.3809         calculate D2E/DX2 analytically  !
 ! D16   D(13,11,12,14)        179.6594         calculate D2E/DX2 analytically  !
 ! D17   D(13,11,12,15)         -1.0407         calculate D2E/DX2 analytically  !
 --------------------------------------------------------------------------------
 Trust Radius=3.00D-01 FncErr=1.00D-07 GrdErr=1.00D-07 EigMax=2.50D+02 EigMin=1.00D-04
 Number of steps in this run=    100 maximum allowed number of steps=    100.
 Search for a saddle point of order  1.
 GradGradGradGradGradGradGradGradGradGradGradGradGradGradGradGradGradGrad

                          Input orientation:                          
 ---------------------------------------------------------------------
 Center     Atomic      Atomic             Coordinates (Angstroms)
 Number     Number       Type             X           Y           Z
 ---------------------------------------------------------------------
      1          6           0       -1.253069   -1.196850   -0.393668
      2          1           0       -1.485488   -2.173997    0.016678
      3          1           0       -1.445577   -1.113308   -1.458681
      4          6           0        1.756165    1.068192   -0.341922
      5          1           0        0.948230    1.220657   -1.055658
      6          1           0        1.890961    1.960854    0.264693
      7          1           0        2.678047    0.821344   -0.865185
      8          8           0        1.422190    0.034041    0.580255
      9          8           0        1.267742   -1.150320   -0.137037
     10          1           0        0.055104   -1.219971   -0.306217
     11          6           0       -1.627446   -0.054909    0.410212
     12          6           0       -1.932104    1.155624   -0.085449
     13          1           0       -1.618161   -0.186771    1.484978
     14          1           0       -1.948432    1.335505   -1.152150
     15          1           0       -2.180812    1.983512    0.560927
 ---------------------------------------------------------------------
                    Distance matrix (angstroms):
                    1          2          3          4          5
     1  C    0.000000
     2  H    1.084997   0.000000
     3  H    1.085491   1.817509   0.000000
     4  C    3.766773   4.598771   4.032027   0.000000
     5  H    3.335909   4.312373   3.367511   1.088772   0.000000
     6  H    4.504382   5.344054   4.853141   1.087657   1.783244
     7  H    4.443997   5.204303   4.593407   1.088395   1.785496
     8  O    3.101714   3.694272   3.701048   1.425278   2.075791
     9  O    2.534268   2.941397   3.018313   2.280862   2.562710
    10  H    1.311297   1.840611   1.895150   2.851416   2.704811
    11  C    1.445825   2.159990   2.155469   3.643609   3.226445
    12  C    2.467837   3.360993   2.696391   3.698209   3.040043
    13  H    2.163992   2.474384   3.090855   4.037149   3.875829
    14  H    2.733431   3.727879   2.518632   3.801574   2.900543
    15  H    3.447704   4.250243   3.769573   4.141586   3.603637
                    6          7          8          9         10
     6  H    0.000000
     7  H    1.787348   0.000000
     8  O    2.007968   2.070343   0.000000
     9  O    3.198311   2.531130   1.393224   0.000000
    10  H    3.716713   3.370347   2.056041   1.226362   0.000000
    11  C    4.057544   4.575120   3.055668   3.143489   2.168321
    12  C    3.922604   4.687561   3.598944   3.944497   3.105026
    13  H    4.291308   4.999697   3.179782   3.447868   2.660018
    14  H    4.139981   4.663799   4.007010   4.189696   3.355625
    15  H    4.082598   5.195473   4.096637   4.711749   4.001695
                   11         12         13         14         15
    11  C    0.000000
    12  C    1.343088   0.000000
    13  H    1.082865   2.089695   0.000000
    14  H    2.115953   1.081885   3.062817   0.000000
    15  H    2.117567   1.079378   2.424990   1.846225   0.000000
 Stoichiometry    C4H9O2(2)
 Framework group  C1[X(C4H9O2)]
 Deg. of freedom    39
 Full point group                 C1      NOp   1
 Largest Abelian subgroup         C1      NOp   1
 Largest concise Abelian subgroup C1      NOp   1
                         Standard orientation:                         
 ---------------------------------------------------------------------
 Center     Atomic      Atomic             Coordinates (Angstroms)
 Number     Number       Type             X           Y           Z
 ---------------------------------------------------------------------
      1          6           0        1.275165   -1.172900    0.338659
      2          1           0        1.528291   -2.133737   -0.097159
      3          1           0        1.460615   -1.115229    1.406636
      4          6           0       -1.776477    1.035273    0.332474
      5          1           0       -0.975247    1.183212    1.054671
      6          1           0       -1.925205    1.941665   -0.250047
      7          1           0       -2.696130    0.756613    0.843544
      8          8           0       -1.418119    0.033552   -0.615974
      9          8           0       -1.244735   -1.167065    0.069248
     10          1           0       -0.031866   -1.218379    0.243255
     11          6           0        1.631754   -0.002261   -0.431314
     12          6           0        1.910708    1.199648    0.099238
     13          1           0        1.630463   -0.104483   -1.509342
     14          1           0        1.918164    1.350218    1.170568
     15          1           0        2.146848    2.049670   -0.522659
 ---------------------------------------------------------------------
 Rotational constants (GHZ):           4.7487488           2.1344045           1.6561874
 Standard basis: CC-pVTZ (5D, 7F)
 There are   345 symmetry adapted cartesian basis functions of A   symmetry.
 There are   306 symmetry adapted basis functions of A   symmetry.
   306 basis functions,   465 primitive gaussians,   345 cartesian basis functions
    25 alpha electrons       24 beta electrons
       nuclear repulsion energy       240.0070214904 Hartrees.
 NAtoms=   15 NActive=   15 NUniq=   15 SFac= 1.00D+00 NAtFMM=   60 NAOKFM=F Big=F
 Integral buffers will be    131072 words long.
 Raffenetti 2 integral format.
 Two-electron integral symmetry is turned on.
 Nuclear repulsion after empirical dispersion term =      239.9994703219 Hartrees.
 One-electron integrals computed using PRISM.
 NBasis=   306 RedAO= T EigKep=  4.24D-04  NBF=   306
 NBsUse=   306 1.00D-06 EigRej= -1.00D+00 NBFU=   306
 ExpMin= 1.03D-01 ExpMax= 1.53D+04 ExpMxC= 5.22D+02 IAcc=3 IRadAn=         5 AccDes= 0.00D+00
 Harris functional with IExCor=  419 and IRadAn=       5 diagonalized for initial guess.
 HarFok:  IExCor=  419 AccDes= 0.00D+00 IRadAn=         5 IDoV= 1 UseB2=F ITyADJ=14
 ICtDFT=  3500011 ScaDFX=  1.000000  1.000000  1.000000  1.000000
 FoFCou: FMM=F IPFlag=           0 FMFlag=      100000 FMFlg1=           0
         NFxFlg=           0 DoJE=T BraDBF=F KetDBF=T FulRan=T
         wScrn=  0.000000 ICntrl=       500 IOpCl=  0 I1Cent=   200000004 NGrid=           0
         NMat0=    1 NMatS0=      1 NMatT0=    0 NMatD0=    1 NMtDS0=    0 NMtDT0=    0
 Petite list used in FoFCou.
 Initial guess <Sx>= 0.0000 <Sy>= 0.0000 <Sz>= 0.5000 <S**2>= 0.7500 S= 0.5000
 Requested convergence on RMS density matrix=1.00D-08 within 128 cycles.
 Requested convergence on MAX density matrix=1.00D-06.
 Requested convergence on             energy=1.00D-06.
 No special actions if energy rises.
 Integral accuracy reduced to 1.0D-05 until final iterations.
 Initial convergence to 1.0D-05 achieved.  Increase integral accuracy.
 SCF Done:  E(UB2PLYPD3) =  -307.580069322     A.U. after   21 cycles
            NFock= 21  Conv=0.76D-08     -V/T= 2.0043
 <Sx>= 0.0000 <Sy>= 0.0000 <Sz>= 0.5000 <S**2>= 0.8175 S= 0.5332
 <L.S>=  0.00000000000    
 Annihilation of the first spin contaminant:
 S**2 before annihilation     0.8175,   after     0.7520
 DoSCS=T DFT=T ScalE2(SS,OS)=  0.270000  0.270000
 ExpMin= 1.03D-01 ExpMax= 1.53D+04 ExpMxC= 5.22D+02 IAcc=3 IRadAn=         5 AccDes= 0.00D+00
 HarFok:  IExCor=  205 AccDes= 0.00D+00 IRadAn=         5 IDoV=-2 UseB2=F ITyADJ=14
 ICtDFT= 12500011 ScaDFX=  1.000000  1.000000  1.000000  1.000000
 Range of M.O.s used for correlation:     7   306
 NBasis=   306 NAE=    25 NBE=    24 NFC=     6 NFV=     0
 NROrb=    300 NOA=    19 NOB=    18 NVA=   281 NVB=   282

 **** Warning!!: The largest alpha MO coefficient is  0.11961628D+02


 **** Warning!!: The largest beta MO coefficient is  0.11955789D+02

 DoSCS=T DFT=T ScalE2(SS,OS)=  0.270000  0.270000
 Disk-based method using ON**2 memory for 19 occupieds at a time.
 Permanent disk used for amplitudes=    70282596 words.
 Estimated scratch disk usage=  1388176600 words.
 Actual    scratch disk usage=  1342137560 words.
 JobTyp=2 Pass  1:  I=   7 to  25 NPSUse= 40 ParTrn=T ParDer=T DoDerP=T.
 (rs|ai) integrals will be sorted in core.
 Actual    scratch disk usage=  1342137560 words.
 JobTyp=3 Pass  1:  I=   7 to  24 NPSUse= 40 ParTrn=T ParDer=T DoDerP=T.
 (rs|ai) integrals will be sorted in core.
 Spin components of T(2) and E(2):
     alpha-alpha T2 =       0.6518241565D-01 E2=     -0.4696379013D-01
     alpha-beta  T2 =       0.4006217257D+00 E2=     -0.2904870844D+00
     beta-beta   T2 =       0.7356880020D-01 E2=     -0.4644913658D-01
 (S**2,0)=  0.81751D+00           (S**2,1)=  0.75768D+00
 Scaling Projection term by:   0.270000
 E(PUHF)=      -0.30759058469D+03        E(PMP2)=      -0.30796557226D+03
 E2(B2PLYPD3) =    -0.3839000111D+00 E(B2PLYPD3) =    -0.30796396933357D+03
 G2DrvN: will do    16 centers at a time, making    1 passes.
 Calling FoFCou, ICntrl=  3107 FMM=F I1Cent=   0 AccDes= 0.00D+00.
 End of G2Drv F.D. properties file   721 does not exist.
 End of G2Drv F.D. properties file   722 does not exist.
 End of G2Drv F.D. properties file   788 does not exist.
          IDoAtm=111111111111111
          Differentiating once with respect to electric field.
                with respect to dipole field.
          Differentiating once with respect to nuclear coordinates.
 Keep R1 and R2 ints in memory in canonical form, NReq=2252448294.
          There are    48 degrees of freedom in the 1st order CPHF.  IDoFFX=6 NUNeed=    48.
     45 vectors produced by pass  0 Test12= 2.87D-14 2.08D-09 XBig12= 9.73D+01 7.18D+00.
 AX will form    45 AO Fock derivatives at one time.
     45 vectors produced by pass  1 Test12= 2.87D-14 2.08D-09 XBig12= 1.05D+01 5.34D-01.
     45 vectors produced by pass  2 Test12= 2.87D-14 2.08D-09 XBig12= 9.68D-01 2.36D-01.
     45 vectors produced by pass  3 Test12= 2.87D-14 2.08D-09 XBig12= 1.52D-02 1.37D-02.
     45 vectors produced by pass  4 Test12= 2.87D-14 2.08D-09 XBig12= 1.82D-04 1.49D-03.
     45 vectors produced by pass  5 Test12= 2.87D-14 2.08D-09 XBig12= 2.02D-06 1.29D-04.
     45 vectors produced by pass  6 Test12= 2.87D-14 2.08D-09 XBig12= 1.65D-08 1.38D-05.
     19 vectors produced by pass  7 Test12= 2.87D-14 2.08D-09 XBig12= 1.09D-10 1.01D-06.
      3 vectors produced by pass  8 Test12= 2.87D-14 2.08D-09 XBig12= 6.85D-13 7.98D-08.
      2 vectors produced by pass  9 Test12= 2.87D-14 2.08D-09 XBig12= 5.61D-15 6.43D-09.
 InvSVY:  IOpt=1 It=  1 EMax= 1.24D-14
 Solved reduced A of dimension   339 with    48 vectors.
 End of Minotr F.D. properties file   721 does not exist.
 End of Minotr F.D. properties file   722 does not exist.
 End of Minotr F.D. properties file   788 does not exist.
 MDV= 10737418240.
 DoSCS=T DFT=T ScalE2(SS,OS)=  0.270000  0.270000
 Form MO integral derivatives with frozen-active canonical formalism.
 Discarding MO integrals.
 Reordered first order wavefunction length =    283226920
 In DefCFB: NBatch=  1 ICI= 25 ICA=282 LFMax= 71
            Large arrays: LIAPS=  5824508040 LIARS=  1191802500 words.
 In DefCFB: NBatch=  1 ICI= 25 ICA=282 LFMax= 71
            Large arrays: LIAPS=  5824508040 LIARS=  1191802500 words.
 Semi-Direct transformation.
 ModeAB=           4 MOrb=            25 LenV=   10734607327
 LASXX=    339668775 LTotXX=   339668775 LenRXX=   684905625
 LTotAB=   345236850 MaxLAS=   436195350 LenRXY=           0
 NonZer=  1024574400 LenScr=  1542889472 LnRSAI=   436195350
 LnScr1=   656859136 LExtra=           0 Total=   3320849583
 MaxDsk=          -1 SrtSym=           T ITran=            4
 JobTyp=1 Pass  1:  I=   1 to  25.
 (rs|ai) integrals will be sorted in core.
 ModeAB=           4 MOrb=            24 LenV=   10734607327
 LASXX=    326802342 LTotXX=   326802342 LenRXX=   606843570
 LTotAB=   280041228 MaxLAS=   418747536 LenRXY=           0
 NonZer=   933645912 LenScr=  1405961216 LnRSAI=   418747536
 LnScr1=   630585344 LExtra=           0 Total=   3062137666
 MaxDsk=          -1 SrtSym=           T ITran=            4
 JobTyp=2 Pass  1:  I=   1 to  24.
 (rs|ai) integrals will be sorted in core.
 SymMOI:  orbitals are not symmetric.
 DoSCS=T DFT=T ScalE2(SS,OS)=  0.270000  0.270000
 Spin components of T(2) and E(2):
     alpha-alpha T2 =       0.6518241565D-01 E2=     -0.4696379013D-01
     alpha-beta  T2 =       0.4006217257D+00 E2=     -0.2904870844D+00
     beta-beta   T2 =       0.7356880020D-01 E2=     -0.4644913658D-01
 E2(B2PLYPD3) =    -0.3839000111D+00 E(B2PLYPD3) =    -0.30796396933357D+03
 (S**2,0)=  0.81751D+00           (S**2,1)=  0.75768D+00
 Scaling Projection term by:   0.270000
 E(PUHF)=      -0.30759058469D+03        E(PMP2)=      -0.30796557226D+03
          IDoAtm=111111111111111
          Differentiating once with respect to electric field.
                with respect to dipole field.
          Differentiating once with respect to nuclear coordinates.
 Keep R1 and R2 ints in memory in canonical form, NReq=2252584249.
          There are     1 degrees of freedom in the 1st order CPHF.  IDoFFX=0 NUNeed=     1.
 LinEq1:  Iter=  0 NonCon=     1 RMS=1.08D-03 Max=6.31D-02 NDo=     1
 AX will form     1 AO Fock derivatives at one time.
 LinEq1:  Iter=  1 NonCon=     1 RMS=3.87D-04 Max=1.50D-02 NDo=     1
 LinEq1:  Iter=  2 NonCon=     1 RMS=2.52D-04 Max=9.38D-03 NDo=     1
 LinEq1:  Iter=  3 NonCon=     1 RMS=1.32D-04 Max=5.06D-03 NDo=     1
 LinEq1:  Iter=  4 NonCon=     1 RMS=8.95D-05 Max=3.87D-03 NDo=     1
 LinEq1:  Iter=  5 NonCon=     1 RMS=6.14D-05 Max=2.86D-03 NDo=     1
 LinEq1:  Iter=  6 NonCon=     1 RMS=3.17D-05 Max=8.89D-04 NDo=     1
 LinEq1:  Iter=  7 NonCon=     1 RMS=9.20D-06 Max=3.40D-04 NDo=     1
 LinEq1:  Iter=  8 NonCon=     1 RMS=4.28D-06 Max=2.12D-04 NDo=     1
 LinEq1:  Iter=  9 NonCon=     1 RMS=2.14D-06 Max=5.78D-05 NDo=     1
 LinEq1:  Iter= 10 NonCon=     1 RMS=9.58D-07 Max=1.83D-05 NDo=     1
 LinEq1:  Iter= 11 NonCon=     1 RMS=4.98D-07 Max=1.45D-05 NDo=     1
 LinEq1:  Iter= 12 NonCon=     1 RMS=2.48D-07 Max=5.51D-06 NDo=     1
 LinEq1:  Iter= 13 NonCon=     1 RMS=9.61D-08 Max=2.13D-06 NDo=     1
 LinEq1:  Iter= 14 NonCon=     1 RMS=3.11D-08 Max=6.15D-07 NDo=     1
 LinEq1:  Iter= 15 NonCon=     1 RMS=1.40D-08 Max=3.56D-07 NDo=     1
 LinEq1:  Iter= 16 NonCon=     1 RMS=5.52D-09 Max=1.00D-07 NDo=     1
 LinEq1:  Iter= 17 NonCon=     1 RMS=2.11D-09 Max=3.81D-08 NDo=     1
 LinEq1:  Iter= 18 NonCon=     1 RMS=7.22D-10 Max=2.47D-08 NDo=     1
 LinEq1:  Iter= 19 NonCon=     1 RMS=2.33D-10 Max=1.18D-08 NDo=     1
 LinEq1:  Iter= 20 NonCon=     1 RMS=9.16D-11 Max=5.85D-09 NDo=     1
 LinEq1:  Iter= 21 NonCon=     1 RMS=3.18D-11 Max=1.47D-09 NDo=     1
 LinEq1:  Iter= 22 NonCon=     0 RMS=7.73D-12 Max=1.92D-10 NDo=     1
 Linear equations converged to 1.000D-10 1.000D-09 after    22 iterations.
 End of Minotr F.D. properties file   721 does not exist.
 End of Minotr F.D. properties file   722 does not exist.
 End of Minotr F.D. properties file   788 does not exist.
 Symmetrizing basis deriv contribution to polar:
 IMax=3 JMax=2 DiffMx= 0.00D+00
 G2DrvN: will do    16 centers at a time, making    1 passes.
 Calling FoFCou, ICntrl=  3107 FMM=F I1Cent=   0 AccDes= 0.00D+00.
 End of G2Drv F.D. properties file   721 does not exist.
 End of G2Drv F.D. properties file   722 does not exist.
 End of G2Drv F.D. properties file   788 does not exist.
 DoSCS=T DFT=T ScalE2(SS,OS)=  0.270000  0.270000
 R2 and R3 integrals will be kept in memory, NReq=  3583069605.
 DD1Dir will call FoFMem   1 times, MxPair=      1776
 NAB=   600 NAA=   300 NBB=   276.
 Discarding MO integrals.

 **********************************************************************

            Population analysis using the SCF Density.

 **********************************************************************

 Orbital symmetries:
 Alpha Orbitals:
       Occupied  (A) (A) (A) (A) (A) (A) (A) (A) (A) (A) (A) (A)
                 (A) (A) (A) (A) (A) (A) (A) (A) (A) (A) (A) (A)
                 (A)
       Virtual   (A) (A) (A) (A) (A) (A) (A) (A) (A) (A) (A) (A)
                 (A) (A) (A) (A) (A) (A) (A) (A) (A) (A) (A) (A)
                 (A) (A) (A) (A) (A) (A) (A) (A) (A) (A) (A) (A)
                 (A) (A) (A) (A) (A) (A) (A) (A) (A) (A) (A) (A)
                 (A) (A) (A) (A) (A) (A) (A) (A) (A) (A) (A) (A)
                 (A) (A) (A) (A) (A) (A) (A) (A) (A) (A) (A) (A)
                 (A) (A) (A) (A) (A) (A) (A) (A) (A) (A) (A) (A)
                 (A) (A) (A) (A) (A) (A) (A) (A) (A) (A) (A) (A)
                 (A) (A) (A) (A) (A) (A) (A) (A) (A) (A) (A) (A)
                 (A) (A) (A) (A) (A) (A) (A) (A) (A) (A) (A) (A)
                 (A) (A) (A) (A) (A) (A) (A) (A) (A) (A) (A) (A)
                 (A) (A) (A) (A) (A) (A) (A) (A) (A) (A) (A) (A)
                 (A) (A) (A) (A) (A) (A) (A) (A) (A) (A) (A) (A)
                 (A) (A) (A) (A) (A) (A) (A) (A) (A) (A) (A) (A)
                 (A) (A) (A) (A) (A) (A) (A) (A) (A) (A) (A) (A)
                 (A) (A) (A) (A) (A) (A) (A) (A) (A) (A) (A) (A)
                 (A) (A) (A) (A) (A) (A) (A) (A) (A) (A) (A) (A)
                 (A) (A) (A) (A) (A) (A) (A) (A) (A) (A) (A) (A)
                 (A) (A) (A) (A) (A) (A) (A) (A) (A) (A) (A) (A)
                 (A) (A) (A) (A) (A) (A) (A) (A) (A) (A) (A) (A)
                 (A) (A) (A) (A) (A) (A) (A) (A) (A) (A) (A) (A)
                 (A) (A) (A) (A) (A) (A) (A) (A) (A) (A) (A) (A)
                 (A) (A) (A) (A) (A) (A) (A) (A) (A) (A) (A) (A)
                 (A) (A) (A) (A) (A)
 Beta  Orbitals:
       Occupied  (A) (A) (A) (A) (A) (A) (A) (A) (A) (A) (A) (A)
                 (A) (A) (A) (A) (A) (A) (A) (A) (A) (A) (A) (A)
       Virtual   (A) (A) (A) (A) (A) (A) (A) (A) (A) (A) (A) (A)
                 (A) (A) (A) (A) (A) (A) (A) (A) (A) (A) (A) (A)
                 (A) (A) (A) (A) (A) (A) (A) (A) (A) (A) (A) (A)
                 (A) (A) (A) (A) (A) (A) (A) (A) (A) (A) (A) (A)
                 (A) (A) (A) (A) (A) (A) (A) (A) (A) (A) (A) (A)
                 (A) (A) (A) (A) (A) (A) (A) (A) (A) (A) (A) (A)
                 (A) (A) (A) (A) (A) (A) (A) (A) (A) (A) (A) (A)
                 (A) (A) (A) (A) (A) (A) (A) (A) (A) (A) (A) (A)
                 (A) (A) (A) (A) (A) (A) (A) (A) (A) (A) (A) (A)
                 (A) (A) (A) (A) (A) (A) (A) (A) (A) (A) (A) (A)
                 (A) (A) (A) (A) (A) (A) (A) (A) (A) (A) (A) (A)
                 (A) (A) (A) (A) (A) (A) (A) (A) (A) (A) (A) (A)
                 (A) (A) (A) (A) (A) (A) (A) (A) (A) (A) (A) (A)
                 (A) (A) (A) (A) (A) (A) (A) (A) (A) (A) (A) (A)
                 (A) (A) (A) (A) (A) (A) (A) (A) (A) (A) (A) (A)
                 (A) (A) (A) (A) (A) (A) (A) (A) (A) (A) (A) (A)
                 (A) (A) (A) (A) (A) (A) (A) (A) (A) (A) (A) (A)
                 (A) (A) (A) (A) (A) (A) (A) (A) (A) (A) (A) (A)
                 (A) (A) (A) (A) (A) (A) (A) (A) (A) (A) (A) (A)
                 (A) (A) (A) (A) (A) (A) (A) (A) (A) (A) (A) (A)
                 (A) (A) (A) (A) (A) (A) (A) (A) (A) (A) (A) (A)
                 (A) (A) (A) (A) (A) (A) (A) (A) (A) (A) (A) (A)
                 (A) (A) (A) (A) (A) (A) (A) (A) (A) (A) (A) (A)
                 (A) (A) (A) (A) (A) (A)
 The electronic state is 2-A.
 Alpha  occ. eigenvalues --  -19.78958 -19.78458 -10.65843 -10.63282 -10.63106
 Alpha  occ. eigenvalues --  -10.62590  -1.27949  -1.01311  -0.92595  -0.81110
 Alpha  occ. eigenvalues --   -0.77350  -0.65672  -0.60625  -0.56349  -0.55635
 Alpha  occ. eigenvalues --   -0.54553  -0.51411  -0.49931  -0.46236  -0.44248
 Alpha  occ. eigenvalues --   -0.43094  -0.40050  -0.36366  -0.34727  -0.28361
 Alpha virt. eigenvalues --    0.06423   0.08020   0.10311   0.11171   0.12082
 Alpha virt. eigenvalues --    0.13653   0.15477   0.16193   0.16563   0.18759
 Alpha virt. eigenvalues --    0.20563   0.23623   0.27149   0.28854   0.30096
 Alpha virt. eigenvalues --    0.31353   0.32214   0.35487   0.36666   0.37281
 Alpha virt. eigenvalues --    0.41616   0.44639   0.46328   0.46509   0.47897
 Alpha virt. eigenvalues --    0.49752   0.51568   0.51618   0.52118   0.52596
 Alpha virt. eigenvalues --    0.53131   0.54313   0.56235   0.56725   0.57525
 Alpha virt. eigenvalues --    0.59176   0.62229   0.63764   0.66926   0.68715
 Alpha virt. eigenvalues --    0.69208   0.70383   0.72880   0.75716   0.76582
 Alpha virt. eigenvalues --    0.80436   0.81664   0.87624   0.88948   0.92953
 Alpha virt. eigenvalues --    0.94058   0.94644   0.96457   0.97865   0.98789
 Alpha virt. eigenvalues --    0.99432   1.04425   1.05192   1.05769   1.08467
 Alpha virt. eigenvalues --    1.10208   1.11236   1.12431   1.13858   1.15024
 Alpha virt. eigenvalues --    1.17100   1.18445   1.20202   1.22284   1.24208
 Alpha virt. eigenvalues --    1.25519   1.27235   1.28641   1.34022   1.35282
 Alpha virt. eigenvalues --    1.36418   1.37523   1.39581   1.40654   1.42404
 Alpha virt. eigenvalues --    1.43954   1.47370   1.47918   1.50328   1.51751
 Alpha virt. eigenvalues --    1.54938   1.56876   1.58260   1.61319   1.63382
 Alpha virt. eigenvalues --    1.70768   1.71359   1.78240   1.81304   1.83105
 Alpha virt. eigenvalues --    1.89599   1.97440   2.02165   2.04230   2.13965
 Alpha virt. eigenvalues --    2.16063   2.20454   2.22418   2.28249   2.29885
 Alpha virt. eigenvalues --    2.34050   2.36998   2.40095   2.43178   2.45579
 Alpha virt. eigenvalues --    2.47577   2.49155   2.51526   2.53149   2.57650
 Alpha virt. eigenvalues --    2.58171   2.65327   2.67100   2.70812   2.71637
 Alpha virt. eigenvalues --    2.78865   2.80003   2.83275   2.85054   2.88593
 Alpha virt. eigenvalues --    2.90097   2.91135   2.91696   2.92471   2.93830
 Alpha virt. eigenvalues --    2.96607   2.98889   2.99839   3.01218   3.03344
 Alpha virt. eigenvalues --    3.04909   3.06658   3.07985   3.09489   3.11836
 Alpha virt. eigenvalues --    3.13478   3.14525   3.15744   3.16093   3.17427
 Alpha virt. eigenvalues --    3.18448   3.21769   3.22313   3.24230   3.26326
 Alpha virt. eigenvalues --    3.28750   3.31843   3.35978   3.36446   3.40057
 Alpha virt. eigenvalues --    3.42110   3.43409   3.45528   3.47003   3.49930
 Alpha virt. eigenvalues --    3.51253   3.51907   3.53520   3.55019   3.56096
 Alpha virt. eigenvalues --    3.57219   3.60912   3.62032   3.64202   3.66126
 Alpha virt. eigenvalues --    3.70193   3.73687   3.78178   3.79997   3.82074
 Alpha virt. eigenvalues --    3.83831   3.84573   3.84955   3.87729   3.89426
 Alpha virt. eigenvalues --    3.93416   3.94578   3.96344   3.96794   3.97967
 Alpha virt. eigenvalues --    4.00879   4.04222   4.05641   4.06386   4.09272
 Alpha virt. eigenvalues --    4.11089   4.12106   4.12945   4.14142   4.17088
 Alpha virt. eigenvalues --    4.18442   4.20250   4.21319   4.23079   4.26448
 Alpha virt. eigenvalues --    4.27527   4.30186   4.35848   4.36305   4.37782
 Alpha virt. eigenvalues --    4.40020   4.43103   4.46480   4.47524   4.52794
 Alpha virt. eigenvalues --    4.55373   4.58319   4.60882   4.65938   4.70810
 Alpha virt. eigenvalues --    4.73602   4.77291   4.80898   4.81884   4.84323
 Alpha virt. eigenvalues --    4.86051   4.90348   4.94354   4.99473   5.00876
 Alpha virt. eigenvalues --    5.03467   5.04591   5.06390   5.10627   5.11923
 Alpha virt. eigenvalues --    5.12278   5.14147   5.21565   5.26065   5.27526
 Alpha virt. eigenvalues --    5.29237   5.31634   5.33681   5.35505   5.38497
 Alpha virt. eigenvalues --    5.38833   5.41031   5.43110   5.47101   5.51503
 Alpha virt. eigenvalues --    5.57521   5.61463   5.67316   5.76252   5.84342
 Alpha virt. eigenvalues --    5.90799   5.94097   5.97014   5.97831   6.01326
 Alpha virt. eigenvalues --    6.08085   6.09543   6.12607   6.22071   6.27511
 Alpha virt. eigenvalues --    6.36247   6.40546   6.47205   6.65194   6.72585
 Alpha virt. eigenvalues --    6.74428   6.80625   6.95879   7.04073   7.07612
 Alpha virt. eigenvalues --    7.13376   7.44106   7.46129   7.58320   7.70326
 Alpha virt. eigenvalues --    9.78717  10.62992  11.33708  13.20734  13.49210
 Alpha virt. eigenvalues --   14.42158
  Beta  occ. eigenvalues --  -19.78695 -19.76719 -10.65855 -10.63566 -10.62322
  Beta  occ. eigenvalues --  -10.61911  -1.25837  -0.98150  -0.91773  -0.78606
  Beta  occ. eigenvalues --   -0.76676  -0.65177  -0.57418  -0.55653  -0.54363
  Beta  occ. eigenvalues --   -0.54184  -0.50974  -0.46995  -0.45658  -0.43427
  Beta  occ. eigenvalues --   -0.42660  -0.36209  -0.34882  -0.30343
  Beta virt. eigenvalues --   -0.05844   0.07410   0.08326   0.10357   0.11618
  Beta virt. eigenvalues --    0.12380   0.14206   0.15568   0.16297   0.16794
  Beta virt. eigenvalues --    0.19017   0.21353   0.23713   0.27881   0.29618
  Beta virt. eigenvalues --    0.30281   0.31679   0.32807   0.35740   0.36933
  Beta virt. eigenvalues --    0.38025   0.42344   0.44535   0.46320   0.46871
  Beta virt. eigenvalues --    0.48267   0.50855   0.51744   0.52513   0.52663
  Beta virt. eigenvalues --    0.53204   0.53675   0.54899   0.56708   0.57630
  Beta virt. eigenvalues --    0.58027   0.59636   0.62485   0.64186   0.67222
  Beta virt. eigenvalues --    0.69070   0.69498   0.70981   0.73677   0.75891
  Beta virt. eigenvalues --    0.76875   0.80889   0.82595   0.87891   0.89083
  Beta virt. eigenvalues --    0.93279   0.94271   0.94948   0.96651   0.98133
  Beta virt. eigenvalues --    0.98952   0.99785   1.04628   1.05445   1.05958
  Beta virt. eigenvalues --    1.08789   1.10359   1.11745   1.12957   1.14369
  Beta virt. eigenvalues --    1.15410   1.17350   1.18564   1.20417   1.22693
  Beta virt. eigenvalues --    1.24635   1.25856   1.27680   1.29148   1.34263
  Beta virt. eigenvalues --    1.35394   1.36610   1.37702   1.39714   1.40757
  Beta virt. eigenvalues --    1.42625   1.44449   1.47735   1.48218   1.50802
  Beta virt. eigenvalues --    1.52295   1.55265   1.57252   1.58639   1.61588
  Beta virt. eigenvalues --    1.63870   1.71112   1.72070   1.78844   1.81663
  Beta virt. eigenvalues --    1.85037   1.90503   1.97916   2.02626   2.05095
  Beta virt. eigenvalues --    2.14440   2.16736   2.21558   2.23771   2.29024
  Beta virt. eigenvalues --    2.30564   2.34691   2.37414   2.40745   2.43846
  Beta virt. eigenvalues --    2.46084   2.47786   2.49528   2.51738   2.53334
  Beta virt. eigenvalues --    2.58226   2.58950   2.66272   2.67990   2.70964
  Beta virt. eigenvalues --    2.71903   2.79502   2.79986   2.83676   2.85643
  Beta virt. eigenvalues --    2.89049   2.90867   2.91470   2.92042   2.93033
  Beta virt. eigenvalues --    2.93929   2.96911   2.99344   3.00431   3.01498
  Beta virt. eigenvalues --    3.03734   3.05263   3.07289   3.08474   3.10121
  Beta virt. eigenvalues --    3.11981   3.13670   3.14971   3.16202   3.16619
  Beta virt. eigenvalues --    3.17861   3.18549   3.21885   3.22977   3.25169
  Beta virt. eigenvalues --    3.26866   3.29467   3.32552   3.36167   3.36720
  Beta virt. eigenvalues --    3.40267   3.42249   3.43427   3.45659   3.47885
  Beta virt. eigenvalues --    3.50307   3.51515   3.52017   3.53621   3.55211
  Beta virt. eigenvalues --    3.56619   3.57511   3.61095   3.62085   3.64555
  Beta virt. eigenvalues --    3.66617   3.70400   3.73887   3.78447   3.80161
  Beta virt. eigenvalues --    3.82265   3.83982   3.84698   3.85124   3.87939
  Beta virt. eigenvalues --    3.89592   3.93492   3.94475   3.96246   3.96782
  Beta virt. eigenvalues --    3.98241   4.01016   4.04302   4.05550   4.06442
  Beta virt. eigenvalues --    4.09461   4.11026   4.12097   4.13076   4.14157
  Beta virt. eigenvalues --    4.17187   4.18469   4.20299   4.21390   4.23162
  Beta virt. eigenvalues --    4.26966   4.27645   4.30282   4.35871   4.36455
  Beta virt. eigenvalues --    4.38047   4.40298   4.43519   4.46982   4.47677
  Beta virt. eigenvalues --    4.53207   4.55743   4.59025   4.61532   4.66542
  Beta virt. eigenvalues --    4.71499   4.74012   4.78027   4.81044   4.82173
  Beta virt. eigenvalues --    4.84506   4.86454   4.90659   4.94520   4.99694
  Beta virt. eigenvalues --    5.01134   5.04050   5.04966   5.06574   5.10855
  Beta virt. eigenvalues --    5.12461   5.12840   5.14604   5.22649   5.26561
  Beta virt. eigenvalues --    5.28247   5.29707   5.32076   5.33868   5.35788
  Beta virt. eigenvalues --    5.38732   5.39420   5.41187   5.43376   5.47426
  Beta virt. eigenvalues --    5.51708   5.58027   5.61667   5.68102   5.76880
  Beta virt. eigenvalues --    5.85374   5.91362   5.94256   5.97428   5.98535
  Beta virt. eigenvalues --    6.02487   6.08807   6.10115   6.12960   6.23536
  Beta virt. eigenvalues --    6.28370   6.37720   6.40949   6.47340   6.66184
  Beta virt. eigenvalues --    6.75688   6.76932   6.82089   6.97975   7.06464
  Beta virt. eigenvalues --    7.08433   7.15577   7.44353   7.48186   7.59964
  Beta virt. eigenvalues --    7.71229   9.79983  10.63899  11.33624  13.21500
  Beta virt. eigenvalues --   13.49219  14.42556
          Condensed to atoms (all electrons):
               1          2          3          4          5          6
     1  C    5.035338   0.411758   0.402950  -0.002582   0.000427   0.000368
     2  H    0.411758   0.542279  -0.029532   0.000024  -0.000057   0.000019
     3  H    0.402950  -0.029532   0.562636   0.000218  -0.000581  -0.000042
     4  C   -0.002582   0.000024   0.000218   4.613336   0.388383   0.396427
     5  H    0.000427  -0.000057  -0.000581   0.388383   0.677873  -0.035021
     6  H    0.000368   0.000019  -0.000042   0.396427  -0.035021   0.591543
     7  H   -0.000848   0.000015   0.000019   0.412805  -0.054590  -0.028071
     8  O   -0.003419   0.000445   0.000338   0.297786  -0.049772  -0.025977
     9  O   -0.065149  -0.000592  -0.000746  -0.046024   0.000403   0.006633
    10  H    0.235328  -0.010982  -0.007728   0.001396   0.003610  -0.000841
    11  C    0.374582  -0.035353  -0.044445  -0.001763   0.000074   0.000192
    12  C   -0.062809   0.004705  -0.001303  -0.003574  -0.002595   0.000890
    13  H   -0.033678  -0.005431   0.005337   0.000001   0.000096  -0.000066
    14  H   -0.004166  -0.000041   0.003468  -0.000252   0.000396   0.000023
    15  H    0.005732  -0.000275   0.000012   0.000102  -0.000010  -0.000013
               7          8          9         10         11         12
     1  C   -0.000848  -0.003419  -0.065149   0.235328   0.374582  -0.062809
     2  H    0.000015   0.000445  -0.000592  -0.010982  -0.035353   0.004705
     3  H    0.000019   0.000338  -0.000746  -0.007728  -0.044445  -0.001303
     4  C    0.412805   0.297786  -0.046024   0.001396  -0.001763  -0.003574
     5  H   -0.054590  -0.049772   0.000403   0.003610   0.000074  -0.002595
     6  H   -0.028071  -0.025977   0.006633  -0.000841   0.000192   0.000890
     7  H    0.606482  -0.038042   0.004378   0.000663   0.000806   0.000217
     8  O   -0.038042   7.935825   0.074933  -0.023818   0.008427   0.001935
     9  O    0.004378   0.074933   8.089857   0.169703  -0.012862   0.000664
    10  H    0.000663  -0.023818   0.169703   0.431513  -0.004949  -0.006124
    11  C    0.000806   0.008427  -0.012862  -0.004949   4.888572   0.569869
    12  C    0.000217   0.001935   0.000664  -0.006124   0.569869   5.012595
    13  H    0.000006   0.001077   0.000370  -0.000679   0.410344  -0.041398
    14  H    0.000010  -0.000032  -0.000041   0.000063  -0.050103   0.408307
    15  H   -0.000004  -0.000005   0.000009  -0.000081  -0.044225   0.421567
              13         14         15
     1  C   -0.033678  -0.004166   0.005732
     2  H   -0.005431  -0.000041  -0.000275
     3  H    0.005337   0.003468   0.000012
     4  C    0.000001  -0.000252   0.000102
     5  H    0.000096   0.000396  -0.000010
     6  H   -0.000066   0.000023  -0.000013
     7  H    0.000006   0.000010  -0.000004
     8  O    0.001077  -0.000032  -0.000005
     9  O    0.000370  -0.000041   0.000009
    10  H   -0.000679   0.000063  -0.000081
    11  C    0.410344  -0.050103  -0.044225
    12  C   -0.041398   0.408307   0.421567
    13  H    0.519948   0.005930  -0.006848
    14  H    0.005930   0.541127  -0.033504
    15  H   -0.006848  -0.033504   0.524682
          Atomic-Atomic Spin Densities.
               1          2          3          4          5          6
     1  C    0.502890   0.000478   0.003368   0.001841  -0.004619   0.000053
     2  H    0.000478  -0.021369   0.002417  -0.000068   0.000157  -0.000004
     3  H    0.003368   0.002417  -0.021816  -0.000173   0.000568  -0.000000
     4  C    0.001841  -0.000068  -0.000173  -0.006812   0.000699   0.001090
     5  H   -0.004619   0.000157   0.000568   0.000699   0.005006  -0.000760
     6  H    0.000053  -0.000004  -0.000000   0.001090  -0.000760  -0.001969
     7  H    0.000762  -0.000025  -0.000054  -0.000288  -0.001231   0.000518
     8  O    0.011648  -0.000473  -0.000410   0.002244  -0.001846   0.000330
     9  O   -0.067703   0.003335   0.002354  -0.003246   0.003980  -0.000195
    10  H    0.051832   0.002037   0.002058   0.001878  -0.003696   0.000133
    11  C   -0.015866   0.001785   0.001303  -0.001322   0.001371  -0.000185
    12  C   -0.017886  -0.000653  -0.000684  -0.002866   0.005123  -0.000053
    13  H   -0.001300   0.000069  -0.000024  -0.000019   0.000006   0.000008
    14  H    0.000048  -0.000057  -0.000201   0.000035  -0.000177  -0.000001
    15  H   -0.000102   0.000040   0.000023  -0.000056   0.000141  -0.000001
               7          8          9         10         11         12
     1  C    0.000762   0.011648  -0.067703   0.051832  -0.015866  -0.017886
     2  H   -0.000025  -0.000473   0.003335   0.002037   0.001785  -0.000653
     3  H   -0.000054  -0.000410   0.002354   0.002058   0.001303  -0.000684
     4  C   -0.000288   0.002244  -0.003246   0.001878  -0.001322  -0.002866
     5  H   -0.001231  -0.001846   0.003980  -0.003696   0.001371   0.005123
     6  H    0.000518   0.000330  -0.000195   0.000133  -0.000185  -0.000053
     7  H    0.001184  -0.000493   0.000253   0.001227  -0.000273  -0.000310
     8  O   -0.000493   0.086915  -0.051457   0.010338  -0.002792  -0.003619
     9  O    0.000253  -0.051457   0.610448  -0.050692   0.007643   0.002467
    10  H    0.001227   0.010338  -0.050692  -0.100335   0.007107  -0.000711
    11  C   -0.000273  -0.002792   0.007643   0.007107  -0.265989   0.004221
    12  C   -0.000310  -0.003619   0.002467  -0.000711   0.004221   0.430940
    13  H    0.000000  -0.000027  -0.000067  -0.000103  -0.002701  -0.001023
    14  H    0.000010   0.000064  -0.000069   0.000062   0.000485   0.004257
    15  H   -0.000006  -0.000073   0.000030  -0.000023  -0.000875   0.004259
              13         14         15
     1  C   -0.001300   0.000048  -0.000102
     2  H    0.000069  -0.000057   0.000040
     3  H   -0.000024  -0.000201   0.000023
     4  C   -0.000019   0.000035  -0.000056
     5  H    0.000006  -0.000177   0.000141
     6  H    0.000008  -0.000001  -0.000001
     7  H    0.000000   0.000010  -0.000006
     8  O   -0.000027   0.000064  -0.000073
     9  O   -0.000067  -0.000069   0.000030
    10  H   -0.000103   0.000062  -0.000023
    11  C   -0.002701   0.000485  -0.000875
    12  C   -0.001023   0.004257   0.004259
    13  H    0.013935  -0.000048   0.000260
    14  H   -0.000048  -0.023286   0.002672
    15  H    0.000260   0.002672  -0.024701
 Mulliken charges and spin densities:
               1          2
     1  C   -0.293832   0.465446
     2  H    0.123020  -0.012330
     3  H    0.109395  -0.011271
     4  C   -0.056283  -0.007064
     5  H    0.071365   0.004720
     6  H    0.093937  -0.001035
     7  H    0.096152   0.001276
     8  O   -0.179699   0.050347
     9  O   -0.221535   0.457080
    10  H    0.212925  -0.078887
    11  C   -0.059165  -0.266089
    12  C   -0.302946   0.423462
    13  H    0.144989   0.008963
    14  H    0.128814  -0.016206
    15  H    0.132862  -0.018411
 Sum of Mulliken charges =  -0.00000   1.00000
 Mulliken charges and spin densities with hydrogens summed into heavy atoms:
               1          2
     1  C   -0.061416   0.441844
     4  C    0.205171  -0.002103
     8  O   -0.179699   0.050347
     9  O   -0.008610   0.378193
    11  C    0.085825  -0.257126
    12  C   -0.041270   0.388845
 APT charges:
               1
     1  C    0.455731
     2  H   -0.042841
     3  H   -0.039248
     4  C    0.412138
     5  H   -0.026434
     6  H   -0.005261
     7  H   -0.031900
     8  O   -0.334515
     9  O    0.102573
    10  H   -0.402634
    11  C   -0.155223
    12  C   -0.033078
    13  H    0.027866
    14  H    0.019778
    15  H    0.053048
 Sum of APT charges =  -0.00000
 APT charges with hydrogens summed into heavy atoms:
               1
     1  C    0.373642
     4  C    0.348543
     8  O   -0.334515
     9  O   -0.300061
    11  C   -0.127357
    12  C    0.039748
 Electronic spatial extent (au):  <R**2>=            758.7009
 Charge=             -0.0000 electrons
 Dipole moment (field-independent basis, Debye):
    X=              1.4008    Y=              1.5416    Z=              0.9885  Tot=              2.3056
 Quadrupole moment (field-independent basis, Debye-Ang):
   XX=            -39.0407   YY=            -35.8098   ZZ=            -37.1579
   XY=             -3.7728   XZ=             -1.6460   YZ=              0.1462
 Traceless Quadrupole moment (field-independent basis, Debye-Ang):
   XX=             -1.7045   YY=              1.5263   ZZ=              0.1782
   XY=             -3.7728   XZ=             -1.6460   YZ=              0.1462
 Octapole moment (field-independent basis, Debye-Ang**2):
  XXX=            -23.7449  YYY=             -0.9946  ZZZ=             -1.3249  XYY=              0.3910
  XXY=              5.6074  XXZ=              1.5462  XZZ=              0.3734  YZZ=             -0.5210
  YYZ=             -1.8066  XYZ=             -0.1779
 Hexadecapole moment (field-independent basis, Debye-Ang**3):
 XXXX=           -644.5323 YYYY=           -274.3397 ZZZZ=            -92.2897 XXXY=             -4.8763
 XXXZ=             -4.7044 YYYX=             -2.7343 YYYZ=             -3.6350 ZZZX=              2.3617
 ZZZY=              0.3826 XXYY=           -143.2727 XXZZ=           -116.2936 YYZZ=            -61.9849
 XXYZ=             -0.1270 YYXZ=             -0.1024 ZZXY=              1.2080
 N-N= 2.399994703219D+02 E-N=-1.200339492827D+03  KE= 3.062733010153D+02
  Exact polarizability:  99.713   4.634  74.723   1.917  -0.294  51.615
 Approx polarizability:  85.021   8.145  84.028   3.260  -0.111  61.635
                          Isotropic Fermi Contact Couplings
        Atom                 a.u.       MegaHertz       Gauss      10(-4) cm-1
     1  C(13)              0.06506      73.14095      26.09851      24.39720
     2  H(1)              -0.00349     -15.60582      -5.56854      -5.20554
     3  H(1)              -0.00316     -14.12903      -5.04159      -4.71294
     4  C(13)             -0.00456      -5.13140      -1.83101      -1.71165
     5  H(1)               0.00184       8.22844       2.93611       2.74471
     6  H(1)              -0.00017      -0.76256      -0.27210      -0.25436
     7  H(1)               0.00052       2.33189       0.83208       0.77783
     8  O(17)              0.01951     -11.82666      -4.22005      -3.94495
     9  O(17)              0.03186     -19.31464      -6.89195      -6.44267
    10  H(1)              -0.02078     -92.89209     -33.14621     -30.98547
    11  C(13)             -0.01129     -12.68670      -4.52693      -4.23183
    12  C(13)              0.00797       8.95637       3.19586       2.98752
    13  H(1)               0.00073       3.25723       1.16226       1.08650
    14  H(1)              -0.00342     -15.28612      -5.45447      -5.09890
    15  H(1)              -0.00352     -15.72526      -5.61116      -5.24538
 --------------------------------------------------------
       Center         ----  Spin Dipole Couplings  ----
                      3XX-RR        3YY-RR        3ZZ-RR
 --------------------------------------------------------
     1   Atom        0.506018     -0.253644     -0.252374
     2   Atom        0.003175      0.018255     -0.021429
     3   Atom        0.000245     -0.029216      0.028972
     4   Atom       -0.004012      0.007593     -0.003581
     5   Atom       -0.001670      0.004290     -0.002620
     6   Atom       -0.001101      0.005574     -0.004473
     7   Atom        0.000503      0.001787     -0.002290
     8   Atom        0.552050     -0.283904     -0.268146
     9   Atom        1.770500     -0.858504     -0.911996
    10   Atom        0.188972     -0.094860     -0.094112
    11   Atom       -0.082942      0.049258      0.033684
    12   Atom        0.275049     -0.117026     -0.158023
    13   Atom       -0.002785      0.003367     -0.000581
    14   Atom       -0.001163     -0.015071      0.016234
    15   Atom        0.002287      0.006074     -0.008361
 --------------------------------------------------------
                        XY            XZ            YZ
 --------------------------------------------------------
     1   Atom        0.001884      0.038547      0.002151
     2   Atom       -0.009241     -0.001708      0.023753
     3   Atom        0.000109      0.008058      0.003427
     4   Atom       -0.004557     -0.001798      0.004603
     5   Atom        0.000045     -0.001350      0.005652
     6   Atom       -0.003101      0.000197      0.000623
     7   Atom       -0.005684     -0.003522      0.003737
     8   Atom        0.083756      0.159110      0.043573
     9   Atom        0.460362      0.210406      0.037868
    10   Atom       -0.010489      0.035942     -0.002831
    11   Atom        0.046496     -0.010338     -0.001361
    12   Atom       -0.128556      0.018803     -0.008829
    13   Atom        0.004233     -0.003107     -0.001822
    14   Atom       -0.003005     -0.000819      0.006842
    15   Atom        0.003811     -0.005837     -0.018772
 --------------------------------------------------------


 ---------------------------------------------------------------------------------
              Anisotropic Spin Dipole Couplings in Principal Axis System
 ---------------------------------------------------------------------------------

       Atom             a.u.   MegaHertz   Gauss  10(-4) cm-1        Axes

              Baa    -0.2561   -34.362   -12.261   -11.462 -0.0369 -0.6469  0.7617
     1 C(13)  Bbb    -0.2519   -33.804   -12.062   -11.276 -0.0347  0.7626  0.6460
              Bcc     0.5080    68.166    24.323    22.738  0.9987  0.0026  0.0506
 
              Baa    -0.0327   -17.447    -6.225    -5.820 -0.0684 -0.4317  0.8994
     2 H(1)   Bbb     0.0005     0.256     0.092     0.086  0.9516  0.2425  0.1887
              Bcc     0.0322    17.190     6.134     5.734 -0.2996  0.8688  0.3942
 
              Baa    -0.0294   -15.698    -5.602    -5.236  0.0127  0.9981 -0.0603
     3 H(1)   Bbb    -0.0018    -0.982    -0.350    -0.328  0.9678 -0.0275 -0.2501
              Bcc     0.0313    16.680     5.952     5.564  0.2513  0.0552  0.9663
 
              Baa    -0.0057    -0.761    -0.272    -0.254  0.9024  0.1732  0.3945
     4 C(13)  Bbb    -0.0052    -0.696    -0.248    -0.232 -0.2962 -0.4154  0.8600
              Bcc     0.0109     1.457     0.520     0.486 -0.3128  0.8930  0.3236
 
              Baa    -0.0061    -3.263    -1.164    -1.088  0.2621 -0.4615  0.8475
     5 H(1)   Bbb    -0.0014    -0.740    -0.264    -0.247  0.9626  0.1873 -0.1957
              Bcc     0.0075     4.003     1.428     1.335 -0.0684  0.8671  0.4933
 
              Baa    -0.0046    -2.439    -0.870    -0.813 -0.1509 -0.1065  0.9828
     6 H(1)   Bbb    -0.0022    -1.197    -0.427    -0.399  0.9193  0.3503  0.1791
              Bcc     0.0068     3.636     1.297     1.213 -0.3634  0.9306  0.0450
 
              Baa    -0.0047    -2.512    -0.896    -0.838  0.7078  0.2364  0.6657
     7 H(1)   Bbb    -0.0045    -2.379    -0.849    -0.793  0.3545  0.6962 -0.6242
              Bcc     0.0092     4.890     1.745     1.631 -0.6110  0.6778  0.4090
 
              Baa    -0.3230    23.369     8.339     7.795 -0.0696 -0.6727  0.7367
     8 O(17)  Bbb    -0.2682    19.408     6.925     6.474 -0.2009  0.7328  0.6501
              Bcc     0.5912   -42.777   -15.264   -14.269  0.9771  0.1028  0.1861
 
              Baa    -0.9373    67.820    24.200    22.622 -0.1461  0.9630 -0.2263
     9 O(17)  Bbb    -0.9280    67.147    23.960    22.398 -0.1117  0.2112  0.9710
              Bcc     1.8652  -134.967   -48.160   -45.020  0.9829  0.1672  0.0767
 
              Baa    -0.0992   -52.920   -18.883   -17.652 -0.1027  0.3585  0.9279
    10 H(1)   Bbb    -0.0947   -50.518   -18.026   -16.851  0.0790  0.9328 -0.3516
              Bcc     0.1939   103.437    36.909    34.503  0.9916 -0.0372  0.1241
 
              Baa    -0.0983   -13.195    -4.708    -4.402  0.9515 -0.2991  0.0714
    11 C(13)  Bbb     0.0337     4.525     1.615     1.509 -0.0242  0.1588  0.9870
              Bcc     0.0646     8.671     3.094     2.892  0.3066  0.9409 -0.1439
 
              Baa    -0.1607   -21.565    -7.695    -7.193  0.1080  0.4925  0.8636
    12 C(13)  Bbb    -0.1536   -20.615    -7.356    -6.877  0.2685  0.8219 -0.5024
              Bcc     0.3143    42.181    15.051    14.070  0.9572 -0.2862  0.0435
 
              Baa    -0.0058    -3.093    -1.104    -1.032  0.8594 -0.3172  0.4011
    13 H(1)   Bbb    -0.0010    -0.547    -0.195    -0.182 -0.1914  0.5278  0.8275
              Bcc     0.0068     3.640     1.299     1.214  0.4742  0.7879 -0.3929
 
              Baa    -0.0170    -9.065    -3.234    -3.024  0.1733  0.9655 -0.1946
    14 H(1)   Bbb    -0.0008    -0.417    -0.149    -0.139  0.9820 -0.1542  0.1093
              Bcc     0.0178     9.482     3.383     3.163 -0.0755  0.2100  0.9748
 
              Baa    -0.0216   -11.505    -4.105    -3.838  0.1155  0.5472  0.8290
    15 H(1)   Bbb     0.0004     0.202     0.072     0.067  0.9385 -0.3334  0.0894
              Bcc     0.0212    11.304     4.033     3.771  0.3253  0.7678 -0.5520
 

 ---------------------------------------------------------------------------------

 Calling FoFJK, ICntrl=  10100127 FMM=F ISym2X=0 I1Cent= 0 IOpClX= 1 NMat=1 NMatS=1 NMatT=0.
 ***** Axes restored to original set *****
 -------------------------------------------------------------------
 Center     Atomic                   Forces (Hartrees/Bohr)
 Number     Number              X              Y              Z
 -------------------------------------------------------------------
      1        6           0.000030960    0.000270107   -0.000376277
      2        1           0.000000914   -0.000000083    0.000000268
      3        1          -0.000000725    0.000000397    0.000000022
      4        6          -0.000000775   -0.000000334   -0.000000058
      5        1           0.000000987    0.000001733   -0.000001593
      6        1          -0.000001654   -0.000000052    0.000000287
      7        1          -0.000000080    0.000000115   -0.000000174
      8        8           0.000035880    0.000199610   -0.000342508
      9        8          -0.000037112   -0.000243834    0.000408650
     10        1          -0.000001074    0.000000235   -0.000000124
     11        6          -0.000026604   -0.000225536    0.000307590
     12        6           0.000002140   -0.000000781    0.000000505
     13        1          -0.000001797   -0.000001380    0.000000733
     14        1          -0.000001347   -0.000000074    0.000001774
     15        1           0.000000286   -0.000000122    0.000000906
 -------------------------------------------------------------------
 Cartesian Forces:  Max     0.000408650 RMS     0.000128926
 FormGI is forming the generalized inverse of G from B-inverse, IUseBI=4.

 GradGradGradGradGradGradGradGradGradGradGradGradGradGradGradGradGradGrad
 Berny optimization.
 Internal  Forces:  Max     0.000524280 RMS     0.000101061
 Search for a saddle point.
 Step number   1 out of a maximum of  100
 All quantities printed in internal units (Hartrees-Bohrs-Radians)
 Swapping is turned off.
 Second derivative matrix not updated -- analytic derivatives used.
 ITU=  0
     Eigenvalues ---   -0.08986   0.00232   0.00551   0.00584   0.01922
     Eigenvalues ---    0.02079   0.02753   0.03471   0.03707   0.03827
     Eigenvalues ---    0.04262   0.06210   0.07749   0.08454   0.08488
     Eigenvalues ---    0.09578   0.10598   0.11183   0.11753   0.13152
     Eigenvalues ---    0.13452   0.16636   0.16746   0.17470   0.18150
     Eigenvalues ---    0.20139   0.26364   0.31830   0.33853   0.33936
     Eigenvalues ---    0.34552   0.35077   0.35382   0.35515   0.35843
     Eigenvalues ---    0.36114   0.36659   0.40930   0.58681
 Eigenvectors required to have negative eigenvalues:
                          R10       R3        R9        R4        D5
   1                   -0.73081   0.59128   0.16757  -0.12077  -0.10958
                          D4        A2        A14       D6        D7
   1                   -0.10701  -0.08636  -0.07761   0.07649   0.07391
 RFO step:  Lambda0=1.384436600D-09 Lambda=-1.34580510D-04.
 Linear search not attempted -- option 19 set.
 Iteration  1 RMS(Cart)=  0.08225394 RMS(Int)=  0.00282637
 Iteration  2 RMS(Cart)=  0.00624345 RMS(Int)=  0.00001216
 Iteration  3 RMS(Cart)=  0.00002036 RMS(Int)=  0.00000984
 Iteration  4 RMS(Cart)=  0.00000000 RMS(Int)=  0.00000984
 Variable       Old X    -DE/DX   Delta X   Delta X   Delta X     New X
                                 (Linear)    (Quad)   (Total)
    R1        2.05035   0.00000   0.00000   0.00011   0.00011   2.05046
    R2        2.05128  -0.00000   0.00000  -0.00015  -0.00015   2.05113
    R3        2.47799   0.00000   0.00000   0.00411   0.00411   2.48210
    R4        2.73221  -0.00000   0.00000  -0.00131  -0.00131   2.73090
    R5        2.05748  -0.00000   0.00000   0.00078   0.00078   2.05826
    R6        2.05537  -0.00000   0.00000  -0.00008  -0.00008   2.05529
    R7        2.05677  -0.00000   0.00000  -0.00009  -0.00009   2.05668
    R8        2.69339   0.00000   0.00000  -0.00120  -0.00120   2.69219
    R9        2.63281  -0.00000   0.00000  -0.00056  -0.00056   2.63225
   R10        2.31749   0.00000   0.00000  -0.00234  -0.00234   2.31515
   R11        2.53807  -0.00000   0.00000   0.00025   0.00025   2.53832
   R12        2.04632   0.00000   0.00000   0.00015   0.00015   2.04647
   R13        2.04447  -0.00000   0.00000  -0.00003  -0.00003   2.04443
   R14        2.03973   0.00000   0.00000  -0.00009  -0.00009   2.03964
    A1        1.98492   0.00000   0.00000  -0.00008  -0.00005   1.98487
    A2        1.74426  -0.00001   0.00000  -0.00092  -0.00092   1.74335
    A3        2.03260  -0.00025   0.00000   0.00055   0.00053   2.03313
    A4        1.81699  -0.00000   0.00000   0.00399   0.00400   1.82099
    A5        2.02506   0.00024   0.00000   0.00139   0.00138   2.02645
    A6        1.80819   0.00001   0.00000  -0.00562  -0.00563   1.80256
    A7        1.92053  -0.00000   0.00000  -0.00054  -0.00054   1.91999
    A8        1.92317  -0.00000   0.00000  -0.00122  -0.00122   1.92195
    A9        1.93036   0.00000   0.00000  -0.00028  -0.00028   1.93009
   A10        1.92762   0.00000   0.00000   0.00096   0.00096   1.92858
   A11        1.83763  -0.00000   0.00000   0.00072   0.00072   1.83835
   A12        1.92301  -0.00000   0.00000   0.00046   0.00046   1.92347
   A13        1.88564   0.00001   0.00000   0.00060   0.00060   1.88624
   A14        1.80176   0.00001   0.00000  -0.00023  -0.00023   1.80153
   A15        2.17173   0.00000   0.00000   0.00044   0.00044   2.17217
   A16        2.04142  -0.00000   0.00000  -0.00020  -0.00020   2.04122
   A17        2.06915  -0.00000   0.00000  -0.00036  -0.00036   2.06879
   A18        2.11431   0.00000   0.00000  -0.00000  -0.00000   2.11431
   A19        2.12066   0.00000   0.00000   0.00004   0.00004   2.12070
   A20        2.04815  -0.00000   0.00000  -0.00005  -0.00005   2.04811
   A21        3.09466   0.00007   0.00000  -0.00130  -0.00131   3.09335
   A22        3.04434  -0.00003   0.00000  -0.00249  -0.00250   3.04185
    D1       -2.18999  -0.00025   0.00000  -0.13011  -0.13016  -2.32015
    D2        2.01954  -0.00025   0.00000  -0.13236  -0.13233   1.88722
    D3       -0.09660  -0.00052   0.00000  -0.13053  -0.13052  -0.22712
    D4       -2.64943  -0.00003   0.00000   0.00125   0.00125  -2.64818
    D5        0.53791  -0.00003   0.00000   0.00440   0.00440   0.54231
    D6       -0.24074  -0.00004   0.00000   0.00362   0.00362  -0.23711
    D7        2.94660  -0.00004   0.00000   0.00677   0.00677   2.95337
    D8        1.73852   0.00007   0.00000   0.00553   0.00553   1.74405
    D9       -1.35732   0.00007   0.00000   0.00868   0.00868  -1.34865
   D10        1.09246   0.00000   0.00000   0.00924   0.00924   1.10170
   D11       -3.11671  -0.00000   0.00000   0.00888   0.00888  -3.10784
   D12       -1.03810  -0.00000   0.00000   0.01066   0.01066  -1.02744
   D13       -1.69293   0.00000   0.00000   0.03558   0.03558  -1.65735
   D14        0.04048   0.00000   0.00000   0.00279   0.00279   0.04327
   D15       -3.11333  -0.00000   0.00000   0.00233   0.00233  -3.11101
   D16        3.13565   0.00000   0.00000  -0.00039  -0.00039   3.13525
   D17       -0.01816   0.00000   0.00000  -0.00086  -0.00086  -0.01902
         Item               Value     Threshold  Converged?
 Maximum Force            0.000524     0.000450     NO 
 RMS     Force            0.000101     0.000300     YES
 Maximum Displacement     0.230166     0.001800     NO 
 RMS     Displacement     0.082296     0.001200     NO 
 Predicted change in Energy=-7.087805D-05
 GradGradGradGradGradGradGradGradGradGradGradGradGradGradGradGradGradGrad

                          Input orientation:                          
 ---------------------------------------------------------------------
 Center     Atomic      Atomic             Coordinates (Angstroms)
 Number     Number       Type             X           Y           Z
 ---------------------------------------------------------------------
      1          6           0       -1.237151   -1.181534   -0.415454
      2          1           0       -1.492857   -2.174928   -0.061712
      3          1           0       -1.370116   -1.051084   -1.484765
      4          6           0        1.752117    1.056530   -0.389018
      5          1           0        0.960826    1.151270   -1.131448
      6          1           0        1.874738    1.995464    0.146026
      7          1           0        2.684474    0.767579   -0.870387
      8          8           0        1.394599    0.100556    0.604918
      9          8           0        1.265689   -1.140021   -0.015238
     10          1           0        0.065635   -1.212018   -0.251069
     11          6           0       -1.650887   -0.074716    0.416519
     12          6           0       -1.927719    1.157637   -0.040555
     13          1           0       -1.694701   -0.252505    1.483870
     14          1           0       -1.890959    1.383535   -1.097937
     15          1           0       -2.206337    1.957838    0.628028
 ---------------------------------------------------------------------
                    Distance matrix (angstroms):
                    1          2          3          4          5
     1  C    0.000000
     2  H    1.085058   0.000000
     3  H    1.085413   1.817462   0.000000
     4  C    3.734347   4.591220   3.923141   0.000000
     5  H    3.284162   4.269483   3.226219   1.089183   0.000000
     6  H    4.482458   5.364328   4.740255   1.087615   1.783210
     7  H    4.402857   5.173238   4.486056   1.088347   1.785031
     8  O    3.100164   3.736258   3.651944   1.424645   2.075361
     9  O    2.534976   2.946653   3.019087   2.280604   2.566881
    10  H    1.313470   1.841724   1.899812   2.830117   2.676110
    11  C    1.445131   2.159761   2.155692   3.675465   3.274185
    12  C    2.467621   3.360884   2.697242   3.697681   3.087682
    13  H    2.163303   2.474929   3.091258   4.135436   3.982750
    14  H    2.733647   3.727587   2.519580   3.725789   2.861424
    15  H    3.447293   4.250241   3.770514   4.185224   3.711769
                    6          7          8          9         10
     6  H    0.000000
     7  H    1.787867   0.000000
     8  O    2.007932   2.070078   0.000000
     9  O    3.198158   2.526493   1.392926   0.000000
    10  H    3.703847   3.340760   2.054680   1.225124   0.000000
    11  C    4.097419   4.600103   3.056337   3.134917   2.164620
    12  C    3.898134   4.702456   3.545681   3.934174   3.103715
    13  H    4.425391   5.075458   3.231251   3.434955   2.651313
    14  H    4.012777   4.622312   3.916713   4.183897   3.358920
    15  H    4.109613   5.251856   4.051761   4.697391   3.997832
                   11         12         13         14         15
    11  C    0.000000
    12  C    1.343222   0.000000
    13  H    1.082944   2.089658   0.000000
    14  H    2.116059   1.081868   3.062821   0.000000
    15  H    2.117672   1.079330   2.424841   1.846143   0.000000
 Stoichiometry    C4H9O2(2)
 Framework group  C1[X(C4H9O2)]
 Deg. of freedom    39
 Full point group                 C1      NOp   1
 Largest Abelian subgroup         C1      NOp   1
 Largest concise Abelian subgroup C1      NOp   1
                         Standard orientation:                         
 ---------------------------------------------------------------------
 Center     Atomic      Atomic             Coordinates (Angstroms)
 Number     Number       Type             X           Y           Z
 ---------------------------------------------------------------------
      1          6           0        1.260700   -1.152126    0.406801
      2          1           0        1.545371   -2.135564    0.047409
      3          1           0        1.381008   -1.027027    1.478248
      4          6           0       -1.785829    1.007223    0.371901
      5          1           0       -1.003702    1.116507    1.122003
      6          1           0       -1.928401    1.946993   -0.156693
      7          1           0       -2.714400    0.690073    0.842720
      8          8           0       -1.394863    0.069105   -0.626444
      9          8           0       -1.238836   -1.172728   -0.015096
     10          1           0       -0.039379   -1.215284    0.230712
     11          6           0        1.652437   -0.028086   -0.412638
     12          6           0        1.892954    1.207285    0.056675
     13          1           0        1.710065   -0.195904   -1.480947
     14          1           0        1.841203    1.423460    1.115461
     15          1           0        2.156251    2.019952   -0.603022
 ---------------------------------------------------------------------
 Rotational constants (GHZ):           4.7530204           2.1374037           1.6690866
 Standard basis: CC-pVTZ (5D, 7F)
 There are   345 symmetry adapted cartesian basis functions of A   symmetry.
 There are   306 symmetry adapted basis functions of A   symmetry.
   306 basis functions,   465 primitive gaussians,   345 cartesian basis functions
    25 alpha electrons       24 beta electrons
       nuclear repulsion energy       240.2154421562 Hartrees.
 NAtoms=   15 NActive=   15 NUniq=   15 SFac= 1.00D+00 NAtFMM=   60 NAOKFM=F Big=F
 Integral buffers will be    131072 words long.
 Raffenetti 2 integral format.
 Two-electron integral symmetry is turned on.
 Nuclear repulsion after empirical dispersion term =      240.2078768497 Hartrees.
 One-electron integrals computed using PRISM.
 NBasis=   306 RedAO= T EigKep=  4.21D-04  NBF=   306
 NBsUse=   306 1.00D-06 EigRej= -1.00D+00 NBFU=   306
 Initial guess from the checkpoint file:  "/localscratch/353444/Gau-3776.chk"
 B after Tr=     0.000000    0.000000   -0.000000
         Rot=    0.999988    0.001706    0.004436   -0.001291 Ang=   0.56 deg.
 Initial guess <Sx>= 0.0000 <Sy>= 0.0000 <Sz>= 0.5000 <S**2>= 0.8175 S= 0.5332
 ExpMin= 1.03D-01 ExpMax= 1.53D+04 ExpMxC= 5.22D+02 IAcc=3 IRadAn=         5 AccDes= 0.00D+00
 Harris functional with IExCor=  419 and IRadAn=       5 diagonalized for initial guess.
 HarFok:  IExCor=  419 AccDes= 0.00D+00 IRadAn=         5 IDoV= 1 UseB2=F ITyADJ=14
 ICtDFT=  3500011 ScaDFX=  1.000000  1.000000  1.000000  1.000000
 FoFCou: FMM=F IPFlag=           0 FMFlag=      100000 FMFlg1=           0
         NFxFlg=           0 DoJE=T BraDBF=F KetDBF=T FulRan=T
         wScrn=  0.000000 ICntrl=       500 IOpCl=  0 I1Cent=   200000004 NGrid=           0
         NMat0=    1 NMatS0=      1 NMatT0=    0 NMatD0=    1 NMtDS0=    0 NMtDT0=    0
 Petite list used in FoFCou.
 Requested convergence on RMS density matrix=1.00D-08 within 128 cycles.
 Requested convergence on MAX density matrix=1.00D-06.
 Requested convergence on             energy=1.00D-06.
 No special actions if energy rises.
 Integral accuracy reduced to 1.0D-05 until final iterations.
 Initial convergence to 1.0D-05 achieved.  Increase integral accuracy.
 SCF Done:  E(UB2PLYPD3) =  -307.580057918     A.U. after   16 cycles
            NFock= 16  Conv=0.49D-08     -V/T= 2.0043
 <Sx>= 0.0000 <Sy>= 0.0000 <Sz>= 0.5000 <S**2>= 0.8175 S= 0.5332
 <L.S>=  0.00000000000    
 Annihilation of the first spin contaminant:
 S**2 before annihilation     0.8175,   after     0.7520
 DoSCS=T DFT=T ScalE2(SS,OS)=  0.270000  0.270000
 ExpMin= 1.03D-01 ExpMax= 1.53D+04 ExpMxC= 5.22D+02 IAcc=3 IRadAn=         5 AccDes= 0.00D+00
 HarFok:  IExCor=  205 AccDes= 0.00D+00 IRadAn=         5 IDoV=-2 UseB2=F ITyADJ=14
 ICtDFT= 12500011 ScaDFX=  1.000000  1.000000  1.000000  1.000000
 Range of M.O.s used for correlation:     7   306
 NBasis=   306 NAE=    25 NBE=    24 NFC=     6 NFV=     0
 NROrb=    300 NOA=    19 NOB=    18 NVA=   281 NVB=   282

 **** Warning!!: The largest alpha MO coefficient is  0.11933369D+02


 **** Warning!!: The largest beta MO coefficient is  0.11925823D+02

 DoSCS=T DFT=T ScalE2(SS,OS)=  0.270000  0.270000
 Disk-based method using ON**2 memory for 19 occupieds at a time.
 Estimated scratch disk usage=  1428465172 words.
 Actual    scratch disk usage=  1309100052 words.
 JobTyp=2 Pass  1:  I=   7 to  25 NPSUse= 40 ParTrn=T ParDer=T DoDerP=T.
 (rs|ai) integrals will be sorted in core.
 Actual    scratch disk usage=  1309100052 words.
 JobTyp=3 Pass  1:  I=   7 to  24 NPSUse= 40 ParTrn=T ParDer=T DoDerP=T.
 (rs|ai) integrals will be sorted in core.
 Spin components of T(2) and E(2):
     alpha-alpha T2 =       0.6516393273D-01 E2=     -0.4696286253D-01
     alpha-beta  T2 =       0.4006552582D+00 E2=     -0.2905206534D+00
     beta-beta   T2 =       0.7372115473D-01 E2=     -0.4649912964D-01
 (S**2,0)=  0.81747D+00           (S**2,1)=  0.75762D+00
 Scaling Projection term by:   0.270000
 E(PUHF)=      -0.30759056522D+03        E(PMP2)=      -0.30796564118D+03
 E2(B2PLYPD3) =    -0.3839826456D+00 E(B2PLYPD3) =    -0.30796404056314D+03
          IDoAtm=111111111111111
          Differentiating once with respect to electric field.
                with respect to dipole field.
          Differentiating once with respect to nuclear coordinates.
 Keep R1 and R2 ints in memory in canonical form, NReq=2252584249.
          There are     1 degrees of freedom in the 1st order CPHF.  IDoFFX=0 NUNeed=     1.
 LinEq1:  Iter=  0 NonCon=     1 RMS=1.08D-03 Max=6.48D-02 NDo=     1
 AX will form     1 AO Fock derivatives at one time.
 LinEq1:  Iter=  1 NonCon=     1 RMS=3.89D-04 Max=1.50D-02 NDo=     1
 LinEq1:  Iter=  2 NonCon=     1 RMS=2.54D-04 Max=9.43D-03 NDo=     1
 LinEq1:  Iter=  3 NonCon=     1 RMS=1.33D-04 Max=5.10D-03 NDo=     1
 LinEq1:  Iter=  4 NonCon=     1 RMS=8.93D-05 Max=3.93D-03 NDo=     1
 LinEq1:  Iter=  5 NonCon=     1 RMS=6.17D-05 Max=2.90D-03 NDo=     1
 LinEq1:  Iter=  6 NonCon=     1 RMS=3.20D-05 Max=9.24D-04 NDo=     1
 LinEq1:  Iter=  7 NonCon=     1 RMS=9.22D-06 Max=3.29D-04 NDo=     1
 LinEq1:  Iter=  8 NonCon=     1 RMS=4.33D-06 Max=2.15D-04 NDo=     1
 LinEq1:  Iter=  9 NonCon=     1 RMS=2.15D-06 Max=5.61D-05 NDo=     1
 LinEq1:  Iter= 10 NonCon=     1 RMS=9.76D-07 Max=1.89D-05 NDo=     1
 LinEq1:  Iter= 11 NonCon=     1 RMS=5.04D-07 Max=1.40D-05 NDo=     1
 LinEq1:  Iter= 12 NonCon=     1 RMS=2.51D-07 Max=5.63D-06 NDo=     1
 LinEq1:  Iter= 13 NonCon=     1 RMS=9.63D-08 Max=2.13D-06 NDo=     1
 LinEq1:  Iter= 14 NonCon=     1 RMS=3.11D-08 Max=6.22D-07 NDo=     1
 LinEq1:  Iter= 15 NonCon=     1 RMS=1.40D-08 Max=3.54D-07 NDo=     1
 LinEq1:  Iter= 16 NonCon=     1 RMS=5.52D-09 Max=1.12D-07 NDo=     1
 LinEq1:  Iter= 17 NonCon=     1 RMS=2.20D-09 Max=6.65D-08 NDo=     1
 LinEq1:  Iter= 18 NonCon=     1 RMS=7.92D-10 Max=3.85D-08 NDo=     1
 LinEq1:  Iter= 19 NonCon=     1 RMS=2.66D-10 Max=1.51D-08 NDo=     1
 LinEq1:  Iter= 20 NonCon=     1 RMS=1.06D-10 Max=5.63D-09 NDo=     1
 LinEq1:  Iter= 21 NonCon=     1 RMS=3.35D-11 Max=1.05D-09 NDo=     1
 LinEq1:  Iter= 22 NonCon=     0 RMS=7.75D-12 Max=1.97D-10 NDo=     1
 Linear equations converged to 1.000D-10 1.000D-09 after    22 iterations.
 End of Minotr F.D. properties file   721 does not exist.
 End of Minotr F.D. properties file   722 does not exist.
 End of Minotr F.D. properties file   788 does not exist.
 Calling FoFJK, ICntrl=  10002127 FMM=F ISym2X=0 I1Cent= 0 IOpClX= 1 NMat=1 NMatS=1 NMatT=0.
 ***** Axes restored to original set *****
 -------------------------------------------------------------------
 Center     Atomic                   Forces (Hartrees/Bohr)
 Number     Number              X              Y              Z
 -------------------------------------------------------------------
      1        6           0.000025495   -0.000019344    0.000021721
      2        1           0.000006834   -0.000010627   -0.000013656
      3        1           0.000003905    0.000008971   -0.000001897
      4        6          -0.000003183   -0.000007224    0.000024676
      5        1          -0.000010096   -0.000010025   -0.000016607
      6        1           0.000009421    0.000001273    0.000005708
      7        1           0.000000298    0.000009437   -0.000008344
      8        8           0.000039319    0.000056781    0.000001993
      9        8          -0.000039842   -0.000050203   -0.000008908
     10        1           0.000021248    0.000005637   -0.000009444
     11        6          -0.000105282    0.000082433   -0.000016850
     12        6           0.000035487   -0.000052417    0.000007135
     13        1           0.000003282   -0.000011015    0.000005990
     14        1           0.000004792   -0.000002574    0.000006575
     15        1           0.000008322   -0.000001102    0.000001908
 -------------------------------------------------------------------
 Cartesian Forces:  Max     0.000105282 RMS     0.000028064

 GradGradGradGradGradGradGradGradGradGradGradGradGradGradGradGradGradGrad
 Berny optimization.
 FormGI is forming the generalized inverse of G from B-inverse, IUseBI=4.
 Internal  Forces:  Max     0.000068926 RMS     0.000022820
 Search for a saddle point.
 Step number   2 out of a maximum of  100
 All quantities printed in internal units (Hartrees-Bohrs-Radians)
 Swapping is turned off.
 Update second derivatives using D2CorX and points    1    2
 ITU=  0  0
     Eigenvalues ---   -0.08986   0.00231   0.00550   0.00585   0.01922
     Eigenvalues ---    0.02079   0.02753   0.03472   0.03707   0.03827
     Eigenvalues ---    0.04262   0.06209   0.07749   0.08454   0.08488
     Eigenvalues ---    0.09578   0.10598   0.11183   0.11753   0.13152
     Eigenvalues ---    0.13452   0.16636   0.16746   0.17470   0.18150
     Eigenvalues ---    0.20139   0.26364   0.31830   0.33853   0.33936
     Eigenvalues ---    0.34552   0.35077   0.35382   0.35515   0.35843
     Eigenvalues ---    0.36114   0.36659   0.40930   0.58681
 Eigenvectors required to have negative eigenvalues:
                          R10       R3        R9        R4        D5
   1                   -0.73081   0.59129   0.16757  -0.12077  -0.10964
                          D4        A2        A14       D6        D7
   1                   -0.10708  -0.08624  -0.07761   0.07664   0.07408
 RFO step:  Lambda0=8.552274652D-10 Lambda=-1.10671908D-06.
 Linear search not attempted -- option 19 set.
 Iteration  1 RMS(Cart)=  0.00660016 RMS(Int)=  0.00001742
 Iteration  2 RMS(Cart)=  0.00003432 RMS(Int)=  0.00000030
 Iteration  3 RMS(Cart)=  0.00000000 RMS(Int)=  0.00000030
 Variable       Old X    -DE/DX   Delta X   Delta X   Delta X     New X
                                 (Linear)    (Quad)   (Total)
[...]
 ! D11   D(6,4,8,9)           -178.0361         -DE/DX =    0.0                 !
 ! D12   D(7,4,8,9)            -58.8334         -DE/DX =    0.0                 !
 ! D13   D(4,8,9,10)           -94.7991         -DE/DX =    0.0                 !
 ! D14   D(1,11,12,14)           2.527          -DE/DX =    0.0                 !
 ! D15   D(1,11,12,15)        -178.1923         -DE/DX =    0.0                 !
 ! D16   D(13,11,12,14)        179.6133         -DE/DX =    0.0                 !
 ! D17   D(13,11,12,15)         -1.106          -DE/DX =    0.0                 !
 --------------------------------------------------------------------------------
 GradGradGradGradGradGradGradGradGradGradGradGradGradGradGradGradGradGrad


 ----------------------------------------------------------------------

 Electric dipole moment (input orientation):
 (Debye = 10**-18 statcoulomb cm , SI units = C m)
                  (au)            (Debye)         (10**-30 SI)
   Tot        0.861360D+00      0.218936D+01      0.730291D+01
   x         -0.458978D+00     -0.116661D+01     -0.389138D+01
   y          0.613722D+00      0.155992D+01      0.520335D+01
   z         -0.393224D+00     -0.999477D+00     -0.333390D+01

 Dipole polarizability, Alpha (input orientation).
 (esu units = cm**3 , SI units = C**2 m**2 J**-1)
 Alpha(0;0):
               (au)            (10**-24 esu)      (10**-40 SI)
   iso        0.751978D+02      0.111432D+02      0.123985D+02
   aniso      0.420592D+02      0.623253D+01      0.693462D+01
   xx         0.993670D+02      0.147247D+02      0.163834D+02
   yx        -0.398698D+01     -0.590810D+00     -0.657365D+00
   yy         0.746645D+02      0.110641D+02      0.123105D+02
   zx         0.129831D+01      0.192389D+00      0.214062D+00
   zy         0.729794D+00      0.108144D+00      0.120327D+00
   zz         0.515620D+02      0.764070D+01      0.850142D+01

 ----------------------------------------------------------------------

 Dipole orientation:
     6         -2.04286953          2.62254141          0.01388736
     1         -3.27484754          3.50472904         -1.36754177
     1         -1.09267882          3.95991287          1.24507942
     6          3.58232474         -1.63363200         -0.00373186
     1          3.17077420         -0.35575271          1.55655562
     1          3.70072932         -3.56713475          0.68315669
     1          5.33983348         -1.08635506         -0.92113422
     8          1.56379763         -1.63336021         -1.78494431
     8          1.37146405          0.78730964         -2.80106183
     1         -0.24869021          1.78804876         -1.48453276
     6         -2.97633047          0.34828130          1.20333146
     6         -2.32460018         -0.42615546          3.53093064
     1         -4.21804978         -0.83800982          0.09019199
     1         -1.07958159          0.69052862          4.70675612
     1         -3.03555475         -2.17111386          4.31178135

 Electric dipole moment (dipole orientation):
 (Debye = 10**-18 statcoulomb cm , SI units = C m)
                  (au)            (Debye)         (10**-30 SI)
   Tot        0.861360D+00      0.218936D+01      0.730291D+01
   x          0.000000D+00      0.000000D+00      0.000000D+00
   y          0.000000D+00      0.000000D+00      0.000000D+00
   z          0.861360D+00      0.218936D+01      0.730291D+01

 Dipole polarizability, Alpha (dipole orientation).
 (esu units = cm**3 , SI units = C**2 m**2 J**-1)
 Alpha(0;0):
               (au)            (10**-24 esu)      (10**-40 SI)
   iso        0.751978D+02      0.111432D+02      0.123985D+02
   aniso      0.420592D+02      0.623253D+01      0.693462D+01
   xx         0.811253D+02      0.120215D+02      0.133757D+02
   yx        -0.120396D+02     -0.178408D+01     -0.198506D+01
   yy         0.644204D+02      0.954611D+01      0.106215D+02
   zx        -0.184223D+02     -0.272991D+01     -0.303743D+01
   zy        -0.423305D+01     -0.627273D+00     -0.697936D+00
   zz         0.800479D+02      0.118619D+02      0.131981D+02

 ----------------------------------------------------------------------
 1\1\GINC-N144\Freq\UB2PLYPD3-FC\CC-pVTZ\C4H9O2(2)\ROOT\24-Jun-2019\0\\
 #N Geom=AllCheck Guess=TCheck SCRF=Check GenChk UB2PLYPD3(FC)/CC-pVTZ 
 Freq\\Title Card Required\\0,2\C,-1.2359635388,-1.1806335293,-0.416123
 5405\H,-1.4929698604,-2.1755445817,-0.0676359207\H,-1.3628001926,-1.04
 63972193,-1.4857241701\C,1.7525311431,1.0558981197,-0.39327458\H,0.960
 9758185,1.146891504,-1.1359711457\H,1.8759905403,1.9977619584,0.136410
 1663\H,2.6844581768,0.7637598075,-0.873567373\O,1.3948164967,0.1057860
 509,0.606095945\O,1.2654975316,-1.1383516684,-0.0068900575\H,0.0660145
 383,-1.2104360215,-0.2454124495\C,-1.6553240351,-0.0769058174,0.417232
 6937\C,-1.9271725718,1.1575665533,-0.0368404298\H,-1.706811575,-0.2589
 267886,1.483554443\H,-1.8823539056,1.3876737817,-1.0929913691\H,-2.209
 5385661,1.9554608507,0.6329137878\\Version=ES64L-G16RevB.01\State=2-A\
 HF=-307.5800586\MP2=-307.9640412\PUHF=-307.5905604\PMP2-0=-307.9656408
 \S2=0.817407\S2-1=0.757609\S2A=0.751999\RMSD=7.240e-10\RMSF=4.475e-07\
 ZeroPoint=0.1193228\Thermal=0.1275161\Dipole=-0.4589783,0.6137216,-0.3
 932244\DipoleDeriv=1.1973501,0.1790004,0.1120387,-0.4314156,0.0764991,
 -0.0525895,-0.0865405,-0.0104049,0.0620349,-0.1061974,-0.1064699,-0.00
 64946,-0.0074966,-0.056156,0.018502,-0.0308941,0.0271263,0.0372744,-0.
 0531059,-0.0586892,-0.059332,-0.0086219,0.0207207,0.0505338,0.0038994,
 -0.0154418,-0.0814632,0.4813155,0.0570024,-0.0178952,0.3984102,0.41523
 97,-0.0599554,-0.3681471,-0.1290677,0.3459619,-0.0606052,0.0305321,-0.
 1132299,-0.0701285,0.0030582,-0.008035,0.0354058,0.0552876,-0.0319799,
 0.0513909,-0.0141231,0.0094093,-0.0885701,-0.0705657,-0.0386968,0.0130
 885,-0.0609457,0.0057621,-0.1303437,-0.0137125,0.0793893,0.0530151,0.0
 170508,-0.030971,0.1355292,0.0444454,0.0193364,-0.2776483,-0.045733,-0
 .008768,-1.2864089,-0.3524731,-0.0524624,-0.4087874,0.026103,-0.364018
 1,0.5343291,0.1276752,0.1320159,1.1668275,-0.1460678,0.2091667,0.81440
 9,0.0977955,-0.1208254,-1.3414119,-0.0999677,-0.142049,-0.1536866,0.08
 90443,-0.0186469,-0.3155816,-0.055764,0.0869726,-0.4516472,-0.09043,-0
 .0077701,0.6691294,-0.0880962,-0.0345906,-0.0952512,0.0237833,0.098236
 9,-0.2148493,-0.0466102,-0.0370349,-0.3578361,0.0116091,0.056364,0.207
 7757,0.0113882,0.0965652,0.113803,0.0236264,0.0124872,0.0348658,0.0404
 214,0.0114394,0.0510702,0.0157501,-0.0727756,0.0966545,0.0181513,0.030
 6029,0.0146746,0.0451447,-0.0157723,0.0021156,0.0399481,-0.0846496,0.1
 609659,0.0397478,0.0166304,0.0672418,-0.0054292,-0.0342859,0.0419085,-
 0.0700035,0.0035677\Polar=99.3670224,-3.9869847,74.6645264,1.2983083,0
 .7297935,51.5619901\PG=C01 [X(C4H9O2)]\NImag=1\\0.13644172,0.03614353,
 0.57971423,-0.00959677,-0.02641719,0.59365358,-0.03300144,-0.07756199,
 0.02477854,0.04640920,-0.05989918,-0.28192424,0.08227262,0.06680367,0.
 30325448,0.02628684,0.08223144,-0.08604765,-0.02719662,-0.08867968,0.0
 8196319,-0.02821942,0.00254526,-0.04331208,0.00132158,-0.00098344,0.00
 840121,0.03432221,0.00480875,-0.06102708,0.03735248,0.00538331,-0.0000
 6278,0.02631546,-0.00664462,0.05635150,-0.02987876,0.03549482,-0.31819
 516,-0.00222287,-0.00090545,-0.00578853,0.03477838,-0.03684225,0.34174
 568,-0.00267491,0.00011380,0.00165197,0.00016023,0.00017452,-0.0000497
 6,0.00080149,-0.00001379,-0.00026445,0.57682420,-0.01038402,0.00324269
 ,-0.00059787,0.00192823,-0.00014288,0.00049577,0.00152144,0.00016028,0
 .00021477,-0.02720098,0.52807617,0.00867322,-0.00288891,0.00153814,-0.
 00156109,0.00033603,-0.00055750,-0.00106468,-0.00007426,-0.00037714,0.
 02408503,0.09398894,0.53957242,-0.00042077,0.00006574,-0.00062032,0.00
 019063,-0.00003992,0.00000217,-0.00003391,-0.00013891,0.00012284,-0.20
 128221,0.01166998,-0.13247121,0.20899973,0.00126341,-0.00018330,-0.000
 26041,-0.00006839,-0.00002237,-0.00012792,-0.00058233,-0.00012800,-0.0
 0006279,0.00995698,-0.05053565,0.00255730,-0.01198277,0.05265932,-0.00
 315377,0.00116538,0.00021396,0.00044263,-0.00011125,0.00011281,0.00038
 342,0.00001877,0.00009834,-0.12739858,0.00772895,-0.15999043,0.1410846
 6,-0.01832838,0.18342649,0.00040275,-0.00024574,-0.00004237,-0.0000920
 5,0.00002285,0.00002263,0.00002566,0.00003074,0.00005372,-0.05427206,-
 0.02267630,-0.01308743,-0.00139831,-0.02069892,-0.01122822,0.05089522,
 0.00098642,-0.00040204,-0.00000756,-0.00014967,0.00005087,-0.00007219,
 -0.00012417,-0.00001018,-0.00000497,-0.02463654,-0.24327207,-0.1123614
 6,0.00070290,0.00450753,0.00098092,0.03057251,0.27390625,-0.00017954,0
 .00004346,-0.00009950,-0.00000163,-0.00002615,0.00005969,0.00012532,0.
 00001938,0.00004438,-0.01589828,-0.12427345,-0.12350818,-0.00023132,-0
 .01808360,-0.00837840,0.01458444,0.12243116,0.12553812,0.00098774,-0.0
 0020044,-0.00006902,-0.00016466,-0.00002539,-0.00004717,-0.00019691,-0
 .00000978,0.00002979,-0.24742250,0.06841552,0.09218802,-0.01893966,0.0
 0849746,0.00993850,0.00566962,-0.00107865,-0.00344456,0.26355390,0.000
 41209,-0.00015039,-0.00013313,-0.00010298,0.00001609,-0.00000531,-0.00
 015892,-0.00000637,-0.00001100,0.07349610,-0.07453188,-0.04017325,0.00
 018774,0.00108268,-0.00177252,0.02392075,-0.00511639,-0.01010959,-0.07
 143492,0.07626588,-0.00199473,0.00073152,-0.00025732,0.00038063,-0.000
 05261,0.00010622,0.00021151,0.00003352,0.00006200,0.09001915,-0.033683
 40,-0.09355840,-0.01887976,0.00581010,0.01076520,0.01292644,-0.0042515
 2,-0.00518939,-0.10828199,0.03004219,0.10827141,-0.00348234,0.00205729
 ,-0.00026829,0.00010002,0.00015129,-0.00026689,-0.00116593,-0.00014341
 ,0.00006634,-0.07224325,-0.01756133,0.03720094,0.01263046,0.01294150,-
 0.01385306,-0.00163236,-0.00341261,0.00329174,-0.00387060,-0.02647200,
 0.02701073,0.10251406,0.04617962,-0.01194055,0.00045687,-0.00673792,0.
 00035128,-0.00184342,-0.00541133,-0.00064569,-0.00015116,-0.02175579,-
 0.09486332,0.07342005,-0.00193218,-0.01392033,0.01615811,-0.00937774,-
 0.02609440,0.02264475,-0.00658925,-0.00383300,0.00584604,0.07273509,0.
 34241585,0.01774393,-0.00470366,-0.00103019,-0.00247288,-0.00010774,-0
 .00065787,-0.00239773,-0.00043549,0.00015382,0.02889220,0.04315319,-0.
 18103451,0.00936875,0.02651288,-0.02734705,-0.00479385,-0.01198055,0.0
 1193056,0.01040263,0.02025921,-0.02106857,-0.03709911,-0.01307766,0.31
 358531,-0.14308724,0.02214899,-0.00437079,0.01151251,-0.00082457,0.002
 97317,0.00789016,0.00131736,-0.00059729,-0.00296896,-0.02260007,-0.002
 95092,0.00046699,0.00358942,-0.00079876,0.00063204,-0.00207526,0.00193
 622,0.00211566,0.00079463,-0.00422713,-0.03762614,0.01407610,0.0141173
 3,0.07457441,-0.05348594,0.01631660,0.00162201,0.00754410,0.00041916,0
 .00127439,0.00553590,0.00062225,-0.00024654,-0.00736100,-0.06727539,-0
 .01352944,0.00075237,0.00620690,-0.00577941,-0.00195926,-0.00362755,0.
 00712174,0.00225536,0.00650728,-0.00444723,-0.01487913,-0.18521413,-0.
 05404949,-0.02642521,0.25759488,-0.05427431,0.01229242,0.00329324,0.00
 579231,-0.00060441,0.00153018,0.00500584,0.00032965,0.00077338,-0.0034
 1585,0.00973269,0.02010749,0.00101975,0.00196274,0.00022542,0.00179788
 ,0.00501660,-0.00016256,-0.00066958,0.00231553,0.00035744,-0.00110752,
 -0.08745350,-0.08563431,-0.02027053,0.06481256,0.06571642,0.11352243,-
 0.03992494,-0.01146490,-0.02708415,-0.00001509,-0.00519382,-0.01630615
 ,-0.00193787,0.00022725,0.00326695,0.01633312,-0.01073809,0.00092461,-
 0.00254886,0.00427543,-0.00028359,-0.00037968,-0.00041226,-0.00155070,
 -0.00109359,0.00297153,0.00063625,-0.07475924,-0.03135029,0.07697661,0
 .07689099,0.05815654,-0.11388661,0.01342343,-0.02715254,-0.00231120,-0
 .01704932,-0.00205393,-0.00094896,0.00106867,-0.00063813,0.00063882,-0
 .00202499,0.00094625,-0.00345807,0.00052665,-0.00002910,0.00100837,0.0
 0018668,-0.00040586,0.00038109,0.00004051,-0.00021419,0.00044738,-0.02
 137646,-0.01711930,-0.00999187,0.02906831,-0.01820887,0.00297600,-0.01
 446036,0.06682842,0.03113245,-0.01066403,-0.02862008,0.00070820,0.0012
 8921,-0.00064390,-0.01840768,0.00015223,-0.00332056,0.00225578,0.00347
 565,-0.00120368,-0.00031408,-0.00023347,0.00092635,-0.00027836,0.00009
 207,-0.00022780,-0.00038561,-0.00037754,0.00041277,-0.01095448,-0.0209
 8691,-0.01095112,0.02735065,0.01051217,-0.00026537,-0.03365128,0.00957
 817,0.03782771,-0.04665366,0.03634678,0.03441408,0.00012096,-0.0072690
 4,-0.00710796,-0.00009848,-0.00441283,-0.00318808,0.00041532,0.0006772
 1,-0.00063431,-0.00062318,-0.00048444,0.00042408,0.00005111,-0.0003910
 6,0.00017096,-0.00018164,0.00042579,0.00000164,0.00539686,-0.00629349,
 -0.00266189,0.01071618,0.01187088,0.00901562,-0.04143214,0.01105728,0.
 00238362,0.17963899,-0.01945398,-0.16653235,-0.06248692,0.02314055,-0.
 01822116,-0.01459359,0.00320983,0.00782855,0.00461560,-0.00138939,-0.0
 0207949,0.00171703,0.00085548,0.00062666,-0.00095831,0.00010389,0.0007
 2047,-0.00023736,0.00051581,-0.00041579,-0.00032323,-0.00906626,0.0134
 8999,0.00598650,-0.02802018,-0.02023718,-0.01785097,0.06732737,0.00303
 050,0.01471234,-0.12655367,0.67315557,0.02608015,-0.07972224,-0.167035
 72,-0.00221346,0.01039551,0.00971662,0.01416430,-0.02490830,-0.0176139
 6,0.00071377,0.00090510,-0.00162631,0.00055533,0.00006812,0.00010251,-
 0.00003182,-0.00013489,0.00005916,0.00005146,0.00006846,0.00016765,-0.
 00178221,-0.00134350,-0.00071372,-0.00638718,0.00062368,-0.00039582,0.
 01121133,0.00108360,0.00307709,-0.03044655,-0.10602172,0.66703398,-0.0
 0081083,0.01805873,-0.00068897,0.00249188,0.00050045,0.00203800,-0.001
 17418,-0.00008388,-0.00000604,-0.00041458,-0.00051727,0.00100474,-0.00
 042715,-0.00004984,-0.00042573,0.00017315,0.00007483,0.00008551,-0.000
 15205,0.00015412,-0.00027256,-0.00122011,0.00142215,0.00035775,-0.0013
 3433,-0.00178135,-0.00131094,0.00447939,0.00044798,0.00096670,-0.07040
 217,0.08337134,-0.02451633,0.15387480,0.04023377,-0.05513955,-0.009188
 66,-0.00281146,-0.00231511,-0.00382597,-0.00285600,0.00061686,0.001049
 12,0.00065181,0.00057091,0.00025982,-0.00080071,-0.00037083,-0.0000692
 6,0.00015885,-0.00029120,0.00013632,-0.00040365,0.00040605,-0.00008692
 ,0.00489020,-0.00343991,-0.00184668,0.00970157,0.00772278,0.00699856,-
 0.02706239,-0.00502268,-0.00780492,0.07532383,-0.40619169,0.14524568,-
 0.16494179,0.74354987,-0.01022410,-0.01192774,0.01661987,0.00363438,-0
 .00401384,-0.00145373,0.00087752,-0.00060785,0.00184963,-0.00029831,-0
 .00130939,0.00136328,0.00042693,0.00017988,-0.00048124,-0.00000019,0.0
 0027152,-0.00013042,0.00016477,-0.00006681,-0.00026702,-0.00206631,0.0
 0590744,0.00217372,-0.00625729,-0.00713002,-0.00531575,0.01499159,0.00
 055411,0.00326935,-0.01511250,0.11635612,-0.16728268,-0.04359467,-0.05
 235882,0.65867066,0.00292514,-0.00083883,0.01093353,-0.00121337,0.0006
 5850,-0.00064322,0.00279684,0.00196749,0.00080660,-0.00005488,0.000011
 78,-0.00009015,0.00004930,0.00004290,0.00004781,-0.00002643,-0.0000109
 2,0.00000434,0.00001303,-0.00001396,-0.00000083,-0.00008851,-0.0009405
 6,-0.00013387,0.00005504,0.00082447,0.00004735,0.00075258,-0.00046058,
 -0.00037117,-0.04572115,0.00001156,0.01363396,0.00597182,0.00283847,-0
 .00675755,0.03106720,-0.00019338,0.00618972,-0.02500225,-0.00078841,0.
 00109892,0.00067201,0.00304278,-0.00310054,-0.00285398,-0.00004189,-0.
 00011771,0.00013108,0.00003233,-0.00000688,-0.00004681,-0.00000478,-0.
 00000621,0.00001573,-0.00000323,0.00000262,-0.00004431,0.00008554,0.00
 033738,0.00009918,-0.00063302,-0.00048171,-0.00027505,0.00133901,0.000
 27276,0.00021949,0.00220683,-0.06526966,0.04333482,-0.00089738,-0.0029
 7880,0.03227424,-0.00581997,0.06734726,-0.00104718,0.00407289,-0.01525
 018,-0.00012546,-0.00015767,0.00091893,0.00164300,-0.00254028,-0.00025
 973,-0.00016510,-0.00004206,0.00003584,-0.00000794,-0.00000632,-0.0000
 0571,0.00003248,0.00003066,-0.00000205,0.00000593,-0.00002273,0.000019
 41,-0.00018419,0.00096151,0.00060385,-0.00060492,-0.00113470,-0.000567
 05,0.00123327,0.00004897,-0.00011585,0.01567677,0.04659214,-0.32581672
 ,0.00107726,0.00043707,-0.00886125,-0.01729005,-0.04988370,0.34688601,
 -0.00513313,-0.00186287,-0.00017693,0.00023854,-0.00056607,0.00007340,
 0.00027460,0.00004853,-0.00024039,-0.00009793,0.00048226,-0.00093135,-
 0.00010950,0.00003859,0.00031993,-0.00003460,-0.00007246,0.00003394,0.
 00013238,-0.00004648,0.00019284,0.00017888,-0.00132825,-0.00013011,0.0
 0047539,0.00119769,0.00075934,-0.00189854,0.00022454,-0.00035553,0.005
 51741,0.00128256,-0.00675677,-0.03687675,0.00392989,0.01481831,0.00971
 065,0.00357649,0.00051985,0.02476089,-0.00151290,0.00144717,0.00140923
 ,-0.00007335,0.00007817,-0.00029043,-0.00005943,-0.00006904,-0.0010263
 3,0.00008126,0.00006780,-0.00012300,0.00008411,0.00009702,0.00004787,-
 0.00004944,-0.00000889,-0.00004437,0.00000886,-0.00001834,0.00001880,0
 .00000494,-0.00030503,-0.00006046,0.00026997,0.00033942,0.00016312,-0.
 00068199,-0.00001372,-0.00004227,-0.00107402,-0.00281108,0.03117362,0.
 00332915,-0.06789179,0.05204292,0.00365845,-0.00395684,0.00174004,-0.0
 0510572,0.06571172,0.00047605,-0.00192282,0.00143232,-0.00002773,-0.00
 014429,0.00018246,-0.00039539,0.00086386,0.00040102,-0.00002760,0.0002
 2698,-0.00060375,-0.00001037,0.00004422,0.00032191,-0.00002231,-0.0000
 2045,0.00001338,0.00008899,-0.00003399,0.00015178,0.00007847,-0.000562
 06,-0.00005931,0.00033763,0.00046990,0.00043742,-0.00088760,-0.0000001
 4,-0.00026356,0.00085502,0.00131122,-0.00969449,0.01434610,0.05617276,
 -0.32612895,0.00055847,0.00194136,0.00123024,-0.01534361,-0.06437376,0
 .34491021,0.00920398,0.00315468,-0.00116768,-0.00098990,0.00131142,0.0
 0070801,-0.00023754,-0.00017109,0.00031297,-0.00003690,-0.00009956,0.0
 0037726,-0.00002701,0.00008529,-0.00005833,-0.00011015,-0.00000563,-0.
 00006486,0.00000639,-0.00006837,-0.00005748,-0.00012727,0.00071278,0.0
 0015715,-0.00039834,-0.00097987,-0.00054589,0.00188305,-0.00067234,-0.
 00007921,0.00325559,0.00466509,0.00572402,-0.05417889,0.06114762,0.049
 39743,-0.00623726,-0.00190092,-0.00076371,0.00286171,0.00112011,-0.000
 02610,0.04513253,0.00147839,-0.00245837,0.00329199,0.00054363,-0.00052
 649,-0.00060160,-0.00010363,0.00010836,0.00009134,-0.00005009,-0.00024
 571,0.00019813,0.00001718,0.00001636,-0.00004242,0.00001590,0.00004967
 ,-0.00001910,0.00001179,0.00000575,-0.00004033,0.00004534,0.00078115,0
 .00024263,-0.00038805,-0.00068444,-0.00041595,0.00097352,-0.00021960,0
 .00007781,0.00856996,-0.01709334,-0.02076793,0.06091278,-0.20922491,-0
 .13017175,-0.00192881,0.00066967,-0.00009581,-0.00179869,0.00733342,0.
 00602723,-0.06829922,0.22148847,-0.00004347,0.00221465,-0.00021531,0.0
 0008505,0.00050972,0.00055907,-0.00001295,0.00032308,0.00042683,-0.000
 09997,-0.00001586,-0.00015727,-0.00004541,-0.00003235,0.00000984,0.000
 06696,0.00001068,0.00005301,0.00002785,0.00002047,0.00002683,-0.000066
 17,0.00002344,0.00004941,-0.00025018,-0.00011959,-0.00010010,0.0006313
 2,-0.00000626,0.00009864,-0.00379049,0.01118114,0.01002242,0.05093918,
 -0.13511810,-0.17402547,-0.00074521,-0.00058180,0.00118426,0.00721709,
 -0.02063499,-0.01233069,-0.05391358,0.14222576,0.17439853\\-0.00000021
 ,0.00000002,0.00000018,0.00000058,-0.00000018,0.00000052,-0.00000033,-
 0.00000023,0.00000038,-0.00000023,0.00000008,-0.00000041,-0.00000060,0
 .00000016,-0.00000036,-0.00000024,0.00000033,-0.00000080,-0.00000030,0
 .00000038,-0.00000097,-0.00000017,0.00000078,-0.00000073,-0.00000010,-
 0.00000016,-0.00000040,0.00000088,-0.00000006,0.,0.00000088,-0.0000004
 9,0.00000089,-0.00000009,0.,0.00000041,0.00000048,-0.00000010,0.000000
 38,-0.00000046,-0.00000027,0.00000039,-0.00000009,-0.00000024,0.000000
 53\\\@


 CONFIDENCE: THAT QUIET ASSURED FEELING YOU HAVE
 JUST BEFORE YOU FALL FLAT ON YOUR FACE.
 Job cpu time:       1 days 13 hours 31 minutes 42.2 seconds.
 Elapsed time:       0 days  0 hours 58 minutes  9.9 seconds.
 File lengths (MBytes):  RWF=  57000 Int=      0 D2E=      0 Chk=     16 Scr=      1
 Normal termination of Gaussian 16 at Mon Jun 24 18:11:51 2019.
