 Entering Gaussian System, Link 0=g16
 Initial command:
 /ichec/packages/gaussian/16b01/l1.exe "/localscratch/353445/Gau-9137.inp" -scrdir="/localscratch/353445/"
 Entering Link 1 = /ichec/packages/gaussian/16b01/l1.exe PID=      9436.
  
 Copyright (c) 1988-2017, Gaussian, Inc.  All Rights Reserved.
  
 This is part of the Gaussian(R) 16 program.  It is based on
 the Gaussian(R) 09 system (copyright 2009, Gaussian, Inc.),
 the Gaussian(R) 03 system (copyright 2003, Gaussian, Inc.),
 the Gaussian(R) 98 system (copyright 1998, Gaussian, Inc.),
 the Gaussian(R) 94 system (copyright 1995, Gaussian, Inc.),
 the Gaussian 92(TM) system (copyright 1992, Gaussian, Inc.),
 the Gaussian 90(TM) system (copyright 1990, Gaussian, Inc.),
 the Gaussian 88(TM) system (copyright 1988, Gaussian, Inc.),
 the Gaussian 86(TM) system (copyright 1986, Carnegie Mellon
 University), and the Gaussian 82(TM) system (copyright 1983,
 Carnegie Mellon University). Gaussian is a federally registered
 trademark of Gaussian, Inc.
  
 This software contains proprietary and confidential information,
 including trade secrets, belonging to Gaussian, Inc.
  
 This software is provided under written license and may be
 used, copied, transmitted, or stored only in accord with that
 written license.
  
 The following legend is applicable only to US Government
 contracts under FAR:
  
                    RESTRICTED RIGHTS LEGEND
  
 Use, reproduction and disclosure by the US Government is
 subject to restrictions as set forth in subparagraphs (a)
 and (c) of the Commercial Computer Software - Restricted
 Rights clause in FAR 52.227-19.
  
 Gaussian, Inc.
 340 Quinnipiac St., Bldg. 40, Wallingford CT 06492
  
  
 ---------------------------------------------------------------
 Warning -- This program may not be used in any manner that
 competes with the business of Gaussian, Inc. or will provide
 assistance to any competitor of Gaussian, Inc.  The licensee
 of this program is prohibited from giving any competitor of
 Gaussian, Inc. access to this program.  By using this program,
 the user acknowledges that Gaussian, Inc. is engaged in the
 business of creating and licensing software in the field of
 computational chemistry and represents and warrants to the
 licensee that it is not a competitor of Gaussian, Inc. and that
 it will not use this program in any manner prohibited above.
 ---------------------------------------------------------------
  

 Cite this work as:
 Gaussian 16, Revision B.01,
 M. J. Frisch, G. W. Trucks, H. B. Schlegel, G. E. Scuseria, 
 M. A. Robb, J. R. Cheeseman, G. Scalmani, V. Barone, 
 G. A. Petersson, H. Nakatsuji, X. Li, M. Caricato, A. V. Marenich, 
 J. Bloino, B. G. Janesko, R. Gomperts, B. Mennucci, H. P. Hratchian, 
 J. V. Ortiz, A. F. Izmaylov, J. L. Sonnenberg, D. Williams-Young, 
 F. Ding, F. Lipparini, F. Egidi, J. Goings, B. Peng, A. Petrone, 
 T. Henderson, D. Ranasinghe, V. G. Zakrzewski, J. Gao, N. Rega, 
 G. Zheng, W. Liang, M. Hada, M. Ehara, K. Toyota, R. Fukuda, 
 J. Hasegawa, M. Ishida, T. Nakajima, Y. Honda, O. Kitao, H. Nakai, 
 T. Vreven, K. Throssell, J. A. Montgomery, Jr., J. E. Peralta, 
 F. Ogliaro, M. J. Bearpark, J. J. Heyd, E. N. Brothers, K. N. Kudin, 
 V. N. Staroverov, T. A. Keith, R. Kobayashi, J. Normand, 
 K. Raghavachari, A. P. Rendell, J. C. Burant, S. S. Iyengar, 
 J. Tomasi, M. Cossi, J. M. Millam, M. Klene, C. Adamo, R. Cammi, 
 J. W. Ochterski, R. L. Martin, K. Morokuma, O. Farkas, 
 J. B. Foresman, and D. J. Fox, Gaussian, Inc., Wallingford CT, 2016.
 
 ******************************************
 Gaussian 16:  ES64L-G16RevB.01 20-Dec-2017
                24-Jun-2019 
 ******************************************
 %mem=80GB
 %nproc=40
 Will use up to   40 processors via shared memory.
 ----------------------------------------------------------------------
 # opt=(calcfc,ts,noeigentest,maxcyc=500) freq=noraman uB2PLYPD3/cc-pvt
 z
 ----------------------------------------------------------------------
 1/5=1,6=500,10=4,11=1,18=20,38=1/1,3;
 2/9=110,12=2,17=6,18=5,40=1/2;
 3/5=16,6=1,11=2,25=1,30=1,71=2,74=-60,116=2,140=1/1,2,3;
 4//1;
 5/5=2,38=5/2;
 8/6=3,8=1,10=1,19=11,30=-1/1;
 9/15=3,16=-3/6;
 11/6=1,8=1,15=11,17=12,24=-1,27=1,28=-2,29=300,32=6,42=3/1,2,10;
 10/6=2,21=1/2;
 8/6=4,8=1,10=1,19=11,30=-1/11,4;
 10/5=1,20=4/2;
 11/12=2,14=11,16=1,17=2,28=-2,42=3,76=2/2,10,12;
 6/7=2,8=2,9=2,10=2/1;
 7/10=1,12=2,25=1,44=2/1,2,3,16;
 1/5=1,6=500,10=4,11=1,18=20/3(2);
 2/9=110/2;
 99//99;
 2/9=110/2;
 3/5=16,6=1,11=2,25=1,30=1,71=1,74=-60,116=2/1,2,3;
 4/5=5,16=3,69=1/1;
 5/5=2,38=5/2;
 8/6=4,10=1/1;
 9/15=2,16=-3/6;
 10/5=1/2;
 7/12=2/1,2,3,16;
 1/5=1,6=500,11=1,18=20/3(-8);
 2/9=110/2;
 6/7=2,8=2,9=2,10=2/1;
 99/9=10/99;
 -------------------
 Title Card Required
 -------------------
 Symbolic Z-matrix:
 Charge =  0 Multiplicity = 2
 C                    -2.88466  -0.32686   0.21904 
 H                    -2.41651  -0.72391  -0.68324 
 H                    -3.10313  -1.13805   0.91062 
 H                    -3.7992    0.20251  -0.0427 
 O                    -1.99269   0.52968   0.91712 
 O                    -1.7467    1.65152   0.10004 
 H                    -0.79652   1.35649  -0.50526 
 C                     0.35377   0.95095  -1.10972 
 C                     1.22826   0.49782   0.02168 
 H                     0.66182   1.8545   -1.62847 
 H                     0.01335   0.17359  -1.78851 
 C                     2.55257  -0.11161  -0.4634 
 H                     1.44187   1.33965   0.68225 
 H                     0.6958   -0.24199   0.62316 
 C                     3.43173  -0.57013   0.69548 
 H                     2.33835  -0.95511  -1.12269 
 H                     3.08772   0.62432  -1.06649 
 H                     4.36567  -1.00159   0.33787 
 H                     3.67828   0.26452   1.35163 
 H                     2.92256  -1.32382   1.29613 
 
 Add virtual bond connecting atoms H7         and O6         Dist= 2.20D+00.
 Add virtual bond connecting atoms C8         and H7         Dist= 2.57D+00.

 GradGradGradGradGradGradGradGradGradGradGradGradGradGradGradGradGradGrad
 Berny optimization.
 Initialization pass.
                           ----------------------------
                           !    Initial Parameters    !
                           ! (Angstroms and Degrees)  !
 --------------------------                            --------------------------
 ! Name  Definition              Value          Derivative Info.                !
 --------------------------------------------------------------------------------
 ! R1    R(1,2)                  1.0913         calculate D2E/DX2 analytically  !
 ! R2    R(1,3)                  1.0881         calculate D2E/DX2 analytically  !
 ! R3    R(1,4)                  1.0886         calculate D2E/DX2 analytically  !
 ! R4    R(1,5)                  1.4201         calculate D2E/DX2 analytically  !
 ! R5    R(5,6)                  1.4095         calculate D2E/DX2 analytically  !
 ! R6    R(6,7)                  1.1646         calculate D2E/DX2 analytically  !
 ! R7    R(7,8)                  1.3613         calculate D2E/DX2 analytically  !
 ! R8    R(8,9)                  1.5            calculate D2E/DX2 analytically  !
 ! R9    R(8,10)                 1.0865         calculate D2E/DX2 analytically  !
 ! R10   R(8,11)                 1.0867         calculate D2E/DX2 analytically  !
 ! R11   R(9,12)                 1.5364         calculate D2E/DX2 analytically  !
 ! R12   R(9,13)                 1.0912         calculate D2E/DX2 analytically  !
 ! R13   R(9,14)                 1.0921         calculate D2E/DX2 analytically  !
 ! R14   R(12,15)                1.5252         calculate D2E/DX2 analytically  !
 ! R15   R(12,16)                1.0918         calculate D2E/DX2 analytically  !
 ! R16   R(12,17)                1.0916         calculate D2E/DX2 analytically  !
 ! R17   R(15,18)                1.0892         calculate D2E/DX2 analytically  !
 ! R18   R(15,19)                1.0899         calculate D2E/DX2 analytically  !
 ! R19   R(15,20)                1.09           calculate D2E/DX2 analytically  !
 ! A1    A(2,1,3)              109.9            calculate D2E/DX2 analytically  !
 ! A2    A(2,1,4)              109.7865         calculate D2E/DX2 analytically  !
 ! A3    A(2,1,5)              110.8817         calculate D2E/DX2 analytically  !
 ! A4    A(3,1,4)              110.2824         calculate D2E/DX2 analytically  !
 ! A5    A(3,1,5)              105.2681         calculate D2E/DX2 analytically  !
 ! A6    A(4,1,5)              110.6438         calculate D2E/DX2 analytically  !
 ! A7    A(1,5,6)              107.7416         calculate D2E/DX2 analytically  !
 ! A8    A(5,6,7)              104.0084         calculate D2E/DX2 analytically  !
 ! A9    A(7,8,9)              104.3414         calculate D2E/DX2 analytically  !
 ! A10   A(7,8,10)             101.7621         calculate D2E/DX2 analytically  !
 ! A11   A(7,8,11)             103.0483         calculate D2E/DX2 analytically  !
 ! A12   A(9,8,10)             116.4907         calculate D2E/DX2 analytically  !
 ! A13   A(9,8,11)             115.9551         calculate D2E/DX2 analytically  !
 ! A14   A(10,8,11)            112.6735         calculate D2E/DX2 analytically  !
 ! A15   A(8,9,12)             112.5935         calculate D2E/DX2 analytically  !
 ! A16   A(8,9,13)             109.7356         calculate D2E/DX2 analytically  !
 ! A17   A(8,9,14)             109.6222         calculate D2E/DX2 analytically  !
 ! A18   A(12,9,13)            109.1727         calculate D2E/DX2 analytically  !
 ! A19   A(12,9,14)            108.9921         calculate D2E/DX2 analytically  !
 ! A20   A(13,9,14)            106.5386         calculate D2E/DX2 analytically  !
 ! A21   A(9,12,15)            112.0992         calculate D2E/DX2 analytically  !
 ! A22   A(9,12,16)            109.146          calculate D2E/DX2 analytically  !
 ! A23   A(9,12,17)            109.2426         calculate D2E/DX2 analytically  !
 ! A24   A(15,12,16)           109.8564         calculate D2E/DX2 analytically  !
 ! A25   A(15,12,17)           109.8688         calculate D2E/DX2 analytically  !
 ! A26   A(16,12,17)           106.4639         calculate D2E/DX2 analytically  !
 ! A27   A(12,15,18)           111.3391         calculate D2E/DX2 analytically  !
 ! A28   A(12,15,19)           110.9526         calculate D2E/DX2 analytically  !
 ! A29   A(12,15,20)           110.936          calculate D2E/DX2 analytically  !
 ! A30   A(18,15,19)           107.8812         calculate D2E/DX2 analytically  !
 ! A31   A(18,15,20)           107.9134         calculate D2E/DX2 analytically  !
 ! A32   A(19,15,20)           107.6639         calculate D2E/DX2 analytically  !
 ! A33   L(6,7,8,2,-1)         179.2791         calculate D2E/DX2 analytically  !
 ! A34   L(6,7,8,2,-2)         185.4429         calculate D2E/DX2 analytically  !
 ! D1    D(2,1,5,6)             65.2046         calculate D2E/DX2 analytically  !
 ! D2    D(3,1,5,6)           -175.994          calculate D2E/DX2 analytically  !
 ! D3    D(4,1,5,6)            -56.8618         calculate D2E/DX2 analytically  !
 ! D4    D(1,5,6,7)            -91.8861         calculate D2E/DX2 analytically  !
 ! D5    D(5,6,8,9)            -49.8357         calculate D2E/DX2 analytically  !
 ! D6    D(5,6,8,10)          -171.1739         calculate D2E/DX2 analytically  !
 ! D7    D(5,6,8,11)            70.9884         calculate D2E/DX2 analytically  !
 ! D8    D(7,8,9,12)           175.3863         calculate D2E/DX2 analytically  !
 ! D9    D(7,8,9,13)           -62.7971         calculate D2E/DX2 analytically  !
 ! D10   D(7,8,9,14)            53.8807         calculate D2E/DX2 analytically  !
 ! D11   D(10,8,9,12)          -73.3595         calculate D2E/DX2 analytically  !
 ! D12   D(10,8,9,13)           48.4571         calculate D2E/DX2 analytically  !
 ! D13   D(10,8,9,14)          165.135          calculate D2E/DX2 analytically  !
 ! D14   D(11,8,9,12)           62.8279         calculate D2E/DX2 analytically  !
 ! D15   D(11,8,9,13)         -175.3555         calculate D2E/DX2 analytically  !
 ! D16   D(11,8,9,14)          -58.6776         calculate D2E/DX2 analytically  !
 ! D17   D(8,9,12,15)         -179.9184         calculate D2E/DX2 analytically  !
 ! D18   D(8,9,12,16)          -57.9783         calculate D2E/DX2 analytically  !
 ! D19   D(8,9,12,17)           58.0586         calculate D2E/DX2 analytically  !
 ! D20   D(13,9,12,15)          57.9466         calculate D2E/DX2 analytically  !
 ! D21   D(13,9,12,16)         179.8866         calculate D2E/DX2 analytically  !
 ! D22   D(13,9,12,17)         -64.0765         calculate D2E/DX2 analytically  !
 ! D23   D(14,9,12,15)         -58.0552         calculate D2E/DX2 analytically  !
 ! D24   D(14,9,12,16)          63.8849         calculate D2E/DX2 analytically  !
 ! D25   D(14,9,12,17)         179.9218         calculate D2E/DX2 analytically  !
 ! D26   D(9,12,15,18)         179.8861         calculate D2E/DX2 analytically  !
 ! D27   D(9,12,15,19)         -59.9432         calculate D2E/DX2 analytically  !
 ! D28   D(9,12,15,20)          59.6859         calculate D2E/DX2 analytically  !
 ! D29   D(16,12,15,18)         58.3528         calculate D2E/DX2 analytically  !
 ! D30   D(16,12,15,19)        178.5236         calculate D2E/DX2 analytically  !
 ! D31   D(16,12,15,20)        -61.8474         calculate D2E/DX2 analytically  !
 ! D32   D(17,12,15,18)        -58.449          calculate D2E/DX2 analytically  !
 ! D33   D(17,12,15,19)         61.7218         calculate D2E/DX2 analytically  !
 ! D34   D(17,12,15,20)       -178.6492         calculate D2E/DX2 analytically  !
 --------------------------------------------------------------------------------
 Trust Radius=3.00D-01 FncErr=1.00D-07 GrdErr=1.00D-07 EigMax=2.50D+02 EigMin=1.00D-04
 Number of steps in this run=    120 maximum allowed number of steps=    120.
 Search for a saddle point of order  1.
 GradGradGradGradGradGradGradGradGradGradGradGradGradGradGradGradGradGrad

                          Input orientation:                          
 ---------------------------------------------------------------------
 Center     Atomic      Atomic             Coordinates (Angstroms)
 Number     Number       Type             X           Y           Z
 ---------------------------------------------------------------------
      1          6           0       -2.884660   -0.326863    0.219040
      2          1           0       -2.416512   -0.723913   -0.683241
      3          1           0       -3.103133   -1.138051    0.910617
      4          1           0       -3.799202    0.202511   -0.042701
      5          8           0       -1.992686    0.529680    0.917121
      6          8           0       -1.746698    1.651517    0.100041
      7          1           0       -0.796519    1.356494   -0.505255
      8          6           0        0.353770    0.950948   -1.109720
      9          6           0        1.228258    0.497823    0.021679
     10          1           0        0.661821    1.854501   -1.628471
     11          1           0        0.013351    0.173594   -1.788513
     12          6           0        2.552572   -0.111612   -0.463400
     13          1           0        1.441866    1.339645    0.682245
     14          1           0        0.695804   -0.241987    0.623158
     15          6           0        3.431728   -0.570133    0.695480
     16          1           0        2.338347   -0.955114   -1.122688
     17          1           0        3.087725    0.624317   -1.066490
     18          1           0        4.365666   -1.001588    0.337866
     19          1           0        3.678279    0.264519    1.351628
     20          1           0        2.922559   -1.323821    1.296134
 ---------------------------------------------------------------------
                    Distance matrix (angstroms):
                    1          2          3          4          5
     1  C    0.000000
     2  H    1.091294   0.000000
     3  H    1.088134   1.784192   0.000000
     4  H    1.088638   1.783363   1.786179   0.000000
     5  O    1.420071   2.076604   2.003612   2.071665   0.000000
     6  O    2.285411   2.589372   3.206032   2.516499   1.409485
     7  H    2.778242   2.642754   3.680749   3.249883   2.034107
     8  C    3.726370   3.265196   4.516177   4.352685   3.129122
     9  C    4.199423   3.908184   4.714578   5.036537   3.343249
    10  H    4.555126   4.125265   5.438494   5.014426   3.909168
    11  H    3.560786   2.816270   4.326452   4.193359   3.386951
    12  C    5.484118   5.011491   5.910034   6.373437   4.793377
    13  H    4.659467   4.583656   5.181520   5.411785   3.536574
    14  H    3.604197   3.409610   3.913756   4.565745   2.812448
    15  C    6.339001   6.010527   6.563019   7.309462   5.539222
    16  H    5.429064   4.780717   5.811841   6.338452   5.012313
    17  H    6.182776   5.679897   6.733618   6.975373   5.454745
    18  H    7.282623   6.864233   7.491971   8.261946   6.565741
    19  H    6.686154   6.501090   6.938965   7.606623   5.693764
    20  H    5.989812   5.725687   6.040869   7.021698   5.266759
                    6          7          8          9         10
     6  O    0.000000
     7  H    1.164587   0.000000
     8  C    2.523150   1.361253   0.000000
     9  C    3.191788   2.261570   1.500038   0.000000
    10  H    2.971518   1.906930   1.086465   2.210073   0.000000
    11  H    2.974671   1.924030   1.086703   2.204069   1.808750
    12  C    4.680792   3.656979   2.526162   1.536398   2.966130
    13  H    3.256250   2.533931   2.132177   1.091165   2.492580
    14  H    3.134458   2.460790   2.131419   1.092064   3.076727
    15  C    5.666249   4.799138   3.878951   2.539649   4.353388
    16  H    4.997718   3.943620   2.751688   2.157058   3.310663
    17  H    5.078147   3.992295   2.753737   2.158177   2.777442
    18  H    6.667572   5.737557   4.690758   3.491638   5.073677
    19  H    5.737648   4.966311   4.193063   2.797463   4.528582
    20  H    5.664383   4.925508   4.190631   2.795224   4.875037
                   11         12         13         14         15
    11  H    0.000000
    12  C    2.878352   0.000000
    13  H    3.083014   2.156923   0.000000
    14  H    2.540592   2.155271   1.749760   0.000000
    15  C    4.290531   1.525175   2.758075   2.756482   0.000000
    16  H    2.668878   1.091810   3.054076   2.500895   2.156253
    17  H    3.190023   1.091649   2.505717   3.053961   2.156290
    18  H    4.984495   2.172877   3.761459   3.758493   1.089165
    19  H    4.827054   2.168644   2.570119   3.111651   1.089936
    20  H    4.496753   2.168479   3.108595   2.565482   1.089993
                   16         17         18         19         20
    16  H    0.000000
    17  H    1.749093   0.000000
    18  H    2.499080   2.499783   0.000000
    19  H    3.066784   2.515055   1.761602   0.000000
    20  H    2.515541   3.066678   1.762007   1.759834   0.000000
 Stoichiometry    C5H13O2(2)
 Framework group  C1[X(C5H13O2)]
 Deg. of freedom    54
 Full point group                 C1      NOp   1
 Largest Abelian subgroup         C1      NOp   1
 Largest concise Abelian subgroup C1      NOp   1
                         Standard orientation:                         
 ---------------------------------------------------------------------
 Center     Atomic      Atomic             Coordinates (Angstroms)
 Number     Number       Type             X           Y           Z
 ---------------------------------------------------------------------
      1          6           0        2.897847   -0.838187    0.657347
      2          1           0        2.351443   -0.491037    1.535898
      3          1           0        3.031676   -1.916928    0.706767
      4          1           0        3.864363   -0.340071    0.603875
      5          8           0        2.149779   -0.608066   -0.527574
      6          8           0        2.025062    0.786133   -0.692815
      7          1           0        1.024471    1.045221   -0.156203
      8          6           0       -0.188824    1.237095    0.430407
      9          6           0       -1.076172    0.208870   -0.206367
     10          1           0       -0.393464    2.274721    0.181690
     11          1           0        0.023761    1.093522    1.486399
     12          6           0       -2.484513    0.183167    0.407175
     13          1           0       -1.155295    0.402800   -1.277241
     14          1           0       -0.624962   -0.780135   -0.102051
     15          6           0       -3.376260   -0.867127   -0.246912
     16          1           0       -2.404955   -0.012906    1.478284
     17          1           0       -2.938959    1.170590    0.306318
     18          1           0       -4.370201   -0.876069    0.198377
     19          1           0       -3.489111   -0.673072   -1.313481
     20          1           0       -2.949965   -1.864086   -0.135422
 ---------------------------------------------------------------------
 Rotational constants (GHZ):           4.8224434           0.8617378           0.8103002
 Standard basis: CC-pVTZ (5D, 7F)
 There are   440 symmetry adapted cartesian basis functions of A   symmetry.
 There are   392 symmetry adapted basis functions of A   symmetry.
   392 basis functions,   585 primitive gaussians,   440 cartesian basis functions
    30 alpha electrons       29 beta electrons
       nuclear repulsion energy       314.9287136789 Hartrees.
 NAtoms=   20 NActive=   20 NUniq=   20 SFac= 1.00D+00 NAtFMM=   60 NAOKFM=F Big=F
 Integral buffers will be    131072 words long.
 Raffenetti 2 integral format.
 Two-electron integral symmetry is turned on.
 Nuclear repulsion after empirical dispersion term =      314.9187800263 Hartrees.
 One-electron integrals computed using PRISM.
 NBasis=   392 RedAO= T EigKep=  5.23D-04  NBF=   392
 NBsUse=   392 1.00D-06 EigRej= -1.00D+00 NBFU=   392
 ExpMin= 1.03D-01 ExpMax= 1.53D+04 ExpMxC= 5.22D+02 IAcc=3 IRadAn=         5 AccDes= 0.00D+00
 Harris functional with IExCor=  419 and IRadAn=       5 diagonalized for initial guess.
 HarFok:  IExCor=  419 AccDes= 0.00D+00 IRadAn=         5 IDoV= 1 UseB2=F ITyADJ=14
 ICtDFT=  3500011 ScaDFX=  1.000000  1.000000  1.000000  1.000000
 FoFCou: FMM=F IPFlag=           0 FMFlag=      100000 FMFlg1=           0
         NFxFlg=           0 DoJE=T BraDBF=F KetDBF=T FulRan=T
         wScrn=  0.000000 ICntrl=       500 IOpCl=  0 I1Cent=   200000004 NGrid=           0
         NMat0=    1 NMatS0=      1 NMatT0=    0 NMatD0=    1 NMtDS0=    0 NMtDT0=    0
 Petite list used in FoFCou.
 Initial guess <Sx>= 0.0000 <Sy>= 0.0000 <Sz>= 0.5000 <S**2>= 0.7500 S= 0.5000
 Requested convergence on RMS density matrix=1.00D-08 within 128 cycles.
 Requested convergence on MAX density matrix=1.00D-06.
 Requested convergence on             energy=1.00D-06.
 No special actions if energy rises.
 Integral accuracy reduced to 1.0D-05 until final iterations.
 Initial convergence to 1.0D-05 achieved.  Increase integral accuracy.
 SCF Done:  E(UB2PLYPD3) =  -348.024375927     A.U. after   19 cycles
            NFock= 19  Conv=0.29D-08     -V/T= 2.0044
 <Sx>= 0.0000 <Sy>= 0.0000 <Sz>= 0.5000 <S**2>= 0.7682 S= 0.5091
 <L.S>=  0.00000000000    
 Annihilation of the first spin contaminant:
 S**2 before annihilation     0.7682,   after     0.7501
 DoSCS=T DFT=T ScalE2(SS,OS)=  0.270000  0.270000
 ExpMin= 1.03D-01 ExpMax= 1.53D+04 ExpMxC= 5.22D+02 IAcc=3 IRadAn=         5 AccDes= 0.00D+00
 HarFok:  IExCor=  205 AccDes= 0.00D+00 IRadAn=         5 IDoV=-2 UseB2=F ITyADJ=14
 ICtDFT= 12500011 ScaDFX=  1.000000  1.000000  1.000000  1.000000
 Range of M.O.s used for correlation:     8   392
 NBasis=   392 NAE=    30 NBE=    29 NFC=     7 NFV=     0
 NROrb=    385 NOA=    23 NOB=    22 NVA=   362 NVB=   363

 **** Warning!!: The largest alpha MO coefficient is  0.12094364D+02


 **** Warning!!: The largest beta MO coefficient is  0.12093761D+02

 DoSCS=T DFT=T ScalE2(SS,OS)=  0.270000  0.270000
 Disk-based method using ON**2 memory for 23 occupieds at a time.
 Permanent disk used for amplitudes=   169421973 words.
 Estimated scratch disk usage=  3126894912 words.
 Actual    scratch disk usage=  3023983936 words.
 JobTyp=2 Pass  1:  I=   8 to  30 NPSUse= 40 ParTrn=T ParDer=T DoDerP=T.
 (rs|ai) integrals will be sorted in core.
 Actual    scratch disk usage=  3023983936 words.
 JobTyp=3 Pass  1:  I=   8 to  29 NPSUse= 40 ParTrn=T ParDer=T DoDerP=T.
 (rs|ai) integrals will be sorted in core.
 Spin components of T(2) and E(2):
     alpha-alpha T2 =       0.7445978564D-01 E2=     -0.5379849573D-01
     alpha-beta  T2 =       0.4583814861D+00 E2=     -0.3429802502D+00
     beta-beta   T2 =       0.7899208158D-01 E2=     -0.5220697142D-01
 (S**2,0)=  0.76820D+00           (S**2,1)=  0.74275D+00
 Scaling Projection term by:   0.270000
 E(PUHF)=      -0.34803051227D+03        E(PMP2)=      -0.34847386554D+03
 E2(B2PLYPD3) =    -0.4489857174D+00 E(B2PLYPD3) =    -0.34847336164440D+03
 G2DrvN: will do    21 centers at a time, making    1 passes.
 Calling FoFCou, ICntrl=  3107 FMM=F I1Cent=   0 AccDes= 0.00D+00.
 End of G2Drv F.D. properties file   721 does not exist.
 End of G2Drv F.D. properties file   722 does not exist.
 End of G2Drv F.D. properties file   788 does not exist.
          IDoAtm=11111111111111111111
          Differentiating once with respect to electric field.
                with respect to dipole field.
          Differentiating once with respect to nuclear coordinates.
 CalDSu exits because no D1Ps are significant.
          There are    63 degrees of freedom in the 1st order CPHF.  IDoFFX=6 NUNeed=    63.
     60 vectors produced by pass  0 Test12= 3.39D-14 1.59D-09 XBig12= 8.22D+01 4.82D+00.
 AX will form    60 AO Fock derivatives at one time.
     60 vectors produced by pass  1 Test12= 3.39D-14 1.59D-09 XBig12= 6.06D+00 4.69D-01.
     60 vectors produced by pass  2 Test12= 3.39D-14 1.59D-09 XBig12= 4.15D-01 1.22D-01.
     60 vectors produced by pass  3 Test12= 3.39D-14 1.59D-09 XBig12= 5.94D-03 8.50D-03.
     60 vectors produced by pass  4 Test12= 3.39D-14 1.59D-09 XBig12= 6.00D-05 7.37D-04.
     60 vectors produced by pass  5 Test12= 3.39D-14 1.59D-09 XBig12= 6.33D-07 7.34D-05.
     56 vectors produced by pass  6 Test12= 3.39D-14 1.59D-09 XBig12= 5.40D-09 5.72D-06.
     25 vectors produced by pass  7 Test12= 3.39D-14 1.59D-09 XBig12= 3.89D-11 5.39D-07.
      3 vectors produced by pass  8 Test12= 3.39D-14 1.59D-09 XBig12= 2.32D-13 4.40D-08.
      2 vectors produced by pass  9 Test12= 3.39D-14 1.59D-09 XBig12= 1.84D-15 3.48D-09.
 InvSVY:  IOpt=1 It=  1 EMax= 4.44D-15
 Solved reduced A of dimension   446 with    63 vectors.
 End of Minotr F.D. properties file   721 does not exist.
 End of Minotr F.D. properties file   722 does not exist.
 End of Minotr F.D. properties file   788 does not exist.
 MDV= 10737418240.
 DoSCS=T DFT=T ScalE2(SS,OS)=  0.270000  0.270000
 Form MO integral derivatives with frozen-active canonical formalism.
 Discarding MO integrals.
 Reordered first order wavefunction length =    681858357
 In DefCFB: NBatch=  1 ICI= 30 ICA=363 LFMax= 73
            Large arrays: LIAPS= 14755319040 LIARS=  2347884000 words.
 In DefCFB: NBatch=  1 ICI= 30 ICA=363 LFMax= 73
            Large arrays: LIAPS= 14755319040 LIARS=  2347884000 words.
 Semi-Direct transformation.
 ModeAB=           4 MOrb=            30 LenV=   10732999003
 LASXX=    860785125 LTotXX=   860785125 LenRXX=  1733127225
 LTotAB=   872342100 MaxLAS=   946374240 LenRXY=           0
 NonZer=  2593912350 LenScr=  3906126848 LnRSAI=   946374240
 LnScr1=  1425128448 LExtra=           0 Total=   8010756761
 MaxDsk=          -1 SrtSym=           T ITran=            4
 JobTyp=1 Pass  1:  I=   1 to  30.
 (rs|ai) integrals will be sorted in core.
 ModeAB=           4 MOrb=            29 LenV=   10732999003
 LASXX=    833505211 LTotXX=   833505211 LenRXX=  1553741497
 LTotAB=   720236286 MaxLAS=   914828432 LenRXY=           0
 NonZer=  2387246708 LenScr=  3594912768 LnRSAI=   914828432
 LnScr1=  1377624064 LExtra=           0 Total=   7441106761
 MaxDsk=          -1 SrtSym=           T ITran=            4
 JobTyp=2 Pass  1:  I=   1 to  29.
 (rs|ai) integrals will be sorted in core.
 SymMOI:  orbitals are not symmetric.
 DoSCS=T DFT=T ScalE2(SS,OS)=  0.270000  0.270000
 Spin components of T(2) and E(2):
     alpha-alpha T2 =       0.7445978564D-01 E2=     -0.5379849573D-01
     alpha-beta  T2 =       0.4583814861D+00 E2=     -0.3429802502D+00
     beta-beta   T2 =       0.7899208158D-01 E2=     -0.5220697142D-01
 E2(B2PLYPD3) =    -0.4489857174D+00 E(B2PLYPD3) =    -0.34847336164440D+03
 (S**2,0)=  0.76820D+00           (S**2,1)=  0.74275D+00
 Scaling Projection term by:   0.270000
 E(PUHF)=      -0.34803051227D+03        E(PMP2)=      -0.34847386554D+03
          IDoAtm=11111111111111111111
          Differentiating once with respect to electric field.
                with respect to dipole field.
          Differentiating once with respect to nuclear coordinates.
          There are     1 degrees of freedom in the 1st order CPHF.  IDoFFX=0 NUNeed=     1.
 LinEq1:  Iter=  0 NonCon=     1 RMS=7.71D-04 Max=6.35D-02 NDo=     1
 AX will form     1 AO Fock derivatives at one time.
 LinEq1:  Iter=  1 NonCon=     1 RMS=2.46D-04 Max=7.34D-03 NDo=     1
 LinEq1:  Iter=  2 NonCon=     1 RMS=1.36D-04 Max=8.69D-03 NDo=     1
 LinEq1:  Iter=  3 NonCon=     1 RMS=5.57D-05 Max=1.23D-03 NDo=     1
 LinEq1:  Iter=  4 NonCon=     1 RMS=2.99D-05 Max=6.40D-04 NDo=     1
 LinEq1:  Iter=  5 NonCon=     1 RMS=2.13D-05 Max=6.31D-04 NDo=     1
 LinEq1:  Iter=  6 NonCon=     1 RMS=1.36D-05 Max=5.37D-04 NDo=     1
 LinEq1:  Iter=  7 NonCon=     1 RMS=5.04D-06 Max=1.41D-04 NDo=     1
 LinEq1:  Iter=  8 NonCon=     1 RMS=2.47D-06 Max=4.68D-05 NDo=     1
 LinEq1:  Iter=  9 NonCon=     1 RMS=1.01D-06 Max=2.32D-05 NDo=     1
 LinEq1:  Iter= 10 NonCon=     1 RMS=3.44D-07 Max=9.62D-06 NDo=     1
 LinEq1:  Iter= 11 NonCon=     1 RMS=1.44D-07 Max=2.92D-06 NDo=     1
 LinEq1:  Iter= 12 NonCon=     1 RMS=6.19D-08 Max=1.70D-06 NDo=     1
 LinEq1:  Iter= 13 NonCon=     1 RMS=2.28D-08 Max=4.61D-07 NDo=     1
 LinEq1:  Iter= 14 NonCon=     1 RMS=7.45D-09 Max=1.75D-07 NDo=     1
 LinEq1:  Iter= 15 NonCon=     1 RMS=3.08D-09 Max=5.66D-08 NDo=     1
 LinEq1:  Iter= 16 NonCon=     1 RMS=1.28D-09 Max=2.37D-08 NDo=     1
 LinEq1:  Iter= 17 NonCon=     1 RMS=4.26D-10 Max=1.21D-08 NDo=     1
 LinEq1:  Iter= 18 NonCon=     1 RMS=1.34D-10 Max=6.45D-09 NDo=     1
 LinEq1:  Iter= 19 NonCon=     1 RMS=4.53D-11 Max=3.05D-09 NDo=     1
 LinEq1:  Iter= 20 NonCon=     0 RMS=1.41D-11 Max=8.02D-10 NDo=     1
 Linear equations converged to 1.000D-10 1.000D-09 after    20 iterations.
 End of Minotr F.D. properties file   721 does not exist.
 End of Minotr F.D. properties file   722 does not exist.
 End of Minotr F.D. properties file   788 does not exist.
 Symmetrizing basis deriv contribution to polar:
 IMax=3 JMax=2 DiffMx= 0.00D+00
 G2DrvN: will do    21 centers at a time, making    1 passes.
 Calling FoFCou, ICntrl=  3107 FMM=F I1Cent=   0 AccDes= 0.00D+00.
 End of G2Drv F.D. properties file   721 does not exist.
 End of G2Drv F.D. properties file   722 does not exist.
 End of G2Drv F.D. properties file   788 does not exist.
 DoSCS=T DFT=T ScalE2(SS,OS)=  0.270000  0.270000
 R2 and R3 integrals will be kept in memory, NReq=  9455860260.
 DD1Dir will call FoFMem   1 times, MxPair=      2582
 NAB=   870 NAA=   435 NBB=   406.
 Discarding MO integrals.

 **********************************************************************

            Population analysis using the SCF Density.

 **********************************************************************

 Orbital symmetries:
 Alpha Orbitals:
       Occupied  (A) (A) (A) (A) (A) (A) (A) (A) (A) (A) (A) (A)
                 (A) (A) (A) (A) (A) (A) (A) (A) (A) (A) (A) (A)
                 (A) (A) (A) (A) (A) (A)
       Virtual   (A) (A) (A) (A) (A) (A) (A) (A) (A) (A) (A) (A)
                 (A) (A) (A) (A) (A) (A) (A) (A) (A) (A) (A) (A)
                 (A) (A) (A) (A) (A) (A) (A) (A) (A) (A) (A) (A)
                 (A) (A) (A) (A) (A) (A) (A) (A) (A) (A) (A) (A)
                 (A) (A) (A) (A) (A) (A) (A) (A) (A) (A) (A) (A)
                 (A) (A) (A) (A) (A) (A) (A) (A) (A) (A) (A) (A)
                 (A) (A) (A) (A) (A) (A) (A) (A) (A) (A) (A) (A)
                 (A) (A) (A) (A) (A) (A) (A) (A) (A) (A) (A) (A)
                 (A) (A) (A) (A) (A) (A) (A) (A) (A) (A) (A) (A)
                 (A) (A) (A) (A) (A) (A) (A) (A) (A) (A) (A) (A)
                 (A) (A) (A) (A) (A) (A) (A) (A) (A) (A) (A) (A)
                 (A) (A) (A) (A) (A) (A) (A) (A) (A) (A) (A) (A)
                 (A) (A) (A) (A) (A) (A) (A) (A) (A) (A) (A) (A)
                 (A) (A) (A) (A) (A) (A) (A) (A) (A) (A) (A) (A)
                 (A) (A) (A) (A) (A) (A) (A) (A) (A) (A) (A) (A)
                 (A) (A) (A) (A) (A) (A) (A) (A) (A) (A) (A) (A)
                 (A) (A) (A) (A) (A) (A) (A) (A) (A) (A) (A) (A)
                 (A) (A) (A) (A) (A) (A) (A) (A) (A) (A) (A) (A)
                 (A) (A) (A) (A) (A) (A) (A) (A) (A) (A) (A) (A)
                 (A) (A) (A) (A) (A) (A) (A) (A) (A) (A) (A) (A)
                 (A) (A) (A) (A) (A) (A) (A) (A) (A) (A) (A) (A)
                 (A) (A) (A) (A) (A) (A) (A) (A) (A) (A) (A) (A)
                 (A) (A) (A) (A) (A) (A) (A) (A) (A) (A) (A) (A)
                 (A) (A) (A) (A) (A) (A) (A) (A) (A) (A) (A) (A)
                 (A) (A) (A) (A) (A) (A) (A) (A) (A) (A) (A) (A)
                 (A) (A) (A) (A) (A) (A) (A) (A) (A) (A) (A) (A)
                 (A) (A) (A) (A) (A) (A) (A) (A) (A) (A) (A) (A)
                 (A) (A) (A) (A) (A) (A) (A) (A) (A) (A) (A) (A)
                 (A) (A) (A) (A) (A) (A) (A) (A) (A) (A) (A) (A)
                 (A) (A) (A) (A) (A) (A) (A) (A) (A) (A) (A) (A)
                 (A) (A)
 Beta  Orbitals:
       Occupied  (A) (A) (A) (A) (A) (A) (A) (A) (A) (A) (A) (A)
                 (A) (A) (A) (A) (A) (A) (A) (A) (A) (A) (A) (A)
                 (A) (A) (A) (A) (A)
       Virtual   (A) (A) (A) (A) (A) (A) (A) (A) (A) (A) (A) (A)
                 (A) (A) (A) (A) (A) (A) (A) (A) (A) (A) (A) (A)
                 (A) (A) (A) (A) (A) (A) (A) (A) (A) (A) (A) (A)
                 (A) (A) (A) (A) (A) (A) (A) (A) (A) (A) (A) (A)
                 (A) (A) (A) (A) (A) (A) (A) (A) (A) (A) (A) (A)
                 (A) (A) (A) (A) (A) (A) (A) (A) (A) (A) (A) (A)
                 (A) (A) (A) (A) (A) (A) (A) (A) (A) (A) (A) (A)
                 (A) (A) (A) (A) (A) (A) (A) (A) (A) (A) (A) (A)
                 (A) (A) (A) (A) (A) (A) (A) (A) (A) (A) (A) (A)
                 (A) (A) (A) (A) (A) (A) (A) (A) (A) (A) (A) (A)
                 (A) (A) (A) (A) (A) (A) (A) (A) (A) (A) (A) (A)
                 (A) (A) (A) (A) (A) (A) (A) (A) (A) (A) (A) (A)
                 (A) (A) (A) (A) (A) (A) (A) (A) (A) (A) (A) (A)
                 (A) (A) (A) (A) (A) (A) (A) (A) (A) (A) (A) (A)
                 (A) (A) (A) (A) (A) (A) (A) (A) (A) (A) (A) (A)
                 (A) (A) (A) (A) (A) (A) (A) (A) (A) (A) (A) (A)
                 (A) (A) (A) (A) (A) (A) (A) (A) (A) (A) (A) (A)
                 (A) (A) (A) (A) (A) (A) (A) (A) (A) (A) (A) (A)
                 (A) (A) (A) (A) (A) (A) (A) (A) (A) (A) (A) (A)
                 (A) (A) (A) (A) (A) (A) (A) (A) (A) (A) (A) (A)
                 (A) (A) (A) (A) (A) (A) (A) (A) (A) (A) (A) (A)
                 (A) (A) (A) (A) (A) (A) (A) (A) (A) (A) (A) (A)
                 (A) (A) (A) (A) (A) (A) (A) (A) (A) (A) (A) (A)
                 (A) (A) (A) (A) (A) (A) (A) (A) (A) (A) (A) (A)
                 (A) (A) (A) (A) (A) (A) (A) (A) (A) (A) (A) (A)
                 (A) (A) (A) (A) (A) (A) (A) (A) (A) (A) (A) (A)
                 (A) (A) (A) (A) (A) (A) (A) (A) (A) (A) (A) (A)
                 (A) (A) (A) (A) (A) (A) (A) (A) (A) (A) (A) (A)
                 (A) (A) (A) (A) (A) (A) (A) (A) (A) (A) (A) (A)
                 (A) (A) (A) (A) (A) (A) (A) (A) (A) (A) (A) (A)
                 (A) (A) (A)
 The electronic state is 2-A.
 Alpha  occ. eigenvalues --  -19.78438 -19.78203 -10.65945 -10.63521 -10.61569
 Alpha  occ. eigenvalues --  -10.61471 -10.60347  -1.27132  -1.01870  -0.92577
 Alpha  occ. eigenvalues --   -0.84881  -0.77622  -0.73865  -0.67718  -0.60672
 Alpha  occ. eigenvalues --   -0.56089  -0.55135  -0.54305  -0.50650  -0.50184
 Alpha  occ. eigenvalues --   -0.49736  -0.46780  -0.43925  -0.42879  -0.42151
 Alpha  occ. eigenvalues --   -0.40729  -0.39358  -0.36606  -0.36362  -0.29600
 Alpha virt. eigenvalues --    0.07201   0.08772   0.10157   0.11384   0.12392
 Alpha virt. eigenvalues --    0.13187   0.14101   0.15364   0.15807   0.16590
 Alpha virt. eigenvalues --    0.17328   0.18723   0.20017   0.21400   0.22999
 Alpha virt. eigenvalues --    0.23871   0.25834   0.28368   0.30261   0.31852
 Alpha virt. eigenvalues --    0.32094   0.32901   0.35067   0.35406   0.37267
 Alpha virt. eigenvalues --    0.38583   0.40088   0.45242   0.45568   0.47071
 Alpha virt. eigenvalues --    0.47360   0.47922   0.50822   0.51247   0.51613
 Alpha virt. eigenvalues --    0.52429   0.53064   0.53339   0.53852   0.54227
 Alpha virt. eigenvalues --    0.55263   0.55444   0.55974   0.56589   0.57613
 Alpha virt. eigenvalues --    0.58259   0.59569   0.63847   0.64439   0.67106
 Alpha virt. eigenvalues --    0.68771   0.69710   0.72542   0.73144   0.77276
 Alpha virt. eigenvalues --    0.78289   0.79706   0.82613   0.83429   0.84902
 Alpha virt. eigenvalues --    0.86856   0.87591   0.89953   0.91402   0.92675
 Alpha virt. eigenvalues --    0.94169   0.94943   0.95919   0.98397   0.99676
 Alpha virt. eigenvalues --    1.03779   1.04475   1.06933   1.07312   1.09311
 Alpha virt. eigenvalues --    1.10154   1.11101   1.12557   1.13273   1.13872
 Alpha virt. eigenvalues --    1.15958   1.16679   1.17364   1.18075   1.19806
 Alpha virt. eigenvalues --    1.21866   1.22519   1.23944   1.25273   1.25999
 Alpha virt. eigenvalues --    1.27283   1.27765   1.28803   1.30629   1.33026
 Alpha virt. eigenvalues --    1.34087   1.34738   1.36846   1.38224   1.38726
 Alpha virt. eigenvalues --    1.39867   1.40626   1.41148   1.43460   1.45679
 Alpha virt. eigenvalues --    1.46979   1.48112   1.49462   1.50447   1.51401
 Alpha virt. eigenvalues --    1.54040   1.56152   1.59325   1.60882   1.63429
 Alpha virt. eigenvalues --    1.63895   1.65593   1.66614   1.67235   1.73273
 Alpha virt. eigenvalues --    1.74577   1.77664   1.78402   1.80715   1.89418
 Alpha virt. eigenvalues --    1.94209   1.99245   2.05730   2.12480   2.19103
 Alpha virt. eigenvalues --    2.23008   2.28051   2.32014   2.36723   2.38078
 Alpha virt. eigenvalues --    2.41909   2.42489   2.44185   2.46379   2.47902
 Alpha virt. eigenvalues --    2.48556   2.49853   2.51147   2.55490   2.57143
 Alpha virt. eigenvalues --    2.59658   2.60616   2.63913   2.67991   2.68900
 Alpha virt. eigenvalues --    2.69075   2.70312   2.73276   2.76583   2.77862
 Alpha virt. eigenvalues --    2.80054   2.80750   2.82343   2.85497   2.87168
 Alpha virt. eigenvalues --    2.90414   2.91191   2.92148   2.93193   2.94396
 Alpha virt. eigenvalues --    2.94849   2.96200   2.97855   2.99157   3.02660
 Alpha virt. eigenvalues --    3.03559   3.07408   3.08361   3.10149   3.11805
 Alpha virt. eigenvalues --    3.12213   3.13781   3.14208   3.15641   3.16382
 Alpha virt. eigenvalues --    3.17661   3.18590   3.19369   3.20380   3.21323
 Alpha virt. eigenvalues --    3.21550   3.23098   3.24156   3.26960   3.27520
 Alpha virt. eigenvalues --    3.29465   3.31503   3.32388   3.33560   3.37033
 Alpha virt. eigenvalues --    3.37821   3.40328   3.41478   3.42744   3.44093
 Alpha virt. eigenvalues --    3.45769   3.46290   3.47118   3.50763   3.51944
 Alpha virt. eigenvalues --    3.53428   3.54834   3.56896   3.57536   3.58820
 Alpha virt. eigenvalues --    3.59197   3.60642   3.61832   3.65004   3.66191
 Alpha virt. eigenvalues --    3.67022   3.68430   3.69202   3.72705   3.76617
 Alpha virt. eigenvalues --    3.76992   3.79325   3.82532   3.83068   3.85413
 Alpha virt. eigenvalues --    3.86548   3.87115   3.89679   3.90328   3.90959
 Alpha virt. eigenvalues --    3.93335   3.94336   3.94761   3.95948   3.97765
 Alpha virt. eigenvalues --    3.98380   3.99743   4.00038   4.00793   4.01871
 Alpha virt. eigenvalues --    4.05308   4.06049   4.08927   4.09440   4.11651
 Alpha virt. eigenvalues --    4.12934   4.13836   4.15548   4.16987   4.18452
 Alpha virt. eigenvalues --    4.19295   4.20827   4.21652   4.23668   4.24299
 Alpha virt. eigenvalues --    4.24934   4.25955   4.26537   4.28469   4.31715
 Alpha virt. eigenvalues --    4.35417   4.35747   4.36727   4.37955   4.40179
 Alpha virt. eigenvalues --    4.41296   4.42595   4.43994   4.45040   4.48734
 Alpha virt. eigenvalues --    4.49775   4.51075   4.53477   4.57734   4.60490
 Alpha virt. eigenvalues --    4.62436   4.67615   4.69806   4.72404   4.75217
 Alpha virt. eigenvalues --    4.78272   4.81506   4.82091   4.83299   4.87441
 Alpha virt. eigenvalues --    4.89689   4.91452   4.94499   4.94857   4.99169
 Alpha virt. eigenvalues --    5.00123   5.00414   5.00671   5.02561   5.04025
 Alpha virt. eigenvalues --    5.06855   5.07279   5.09085   5.11442   5.13707
 Alpha virt. eigenvalues --    5.18778   5.20977   5.23247   5.27468   5.28320
 Alpha virt. eigenvalues --    5.30600   5.31024   5.34112   5.34874   5.36640
 Alpha virt. eigenvalues --    5.39040   5.40194   5.40643   5.42989   5.47094
 Alpha virt. eigenvalues --    5.48435   5.49726   5.51388   5.55236   5.58838
 Alpha virt. eigenvalues --    5.63794   5.65284   5.66434   5.67223   5.68201
 Alpha virt. eigenvalues --    5.69082   5.73459   5.78661   5.79349   5.87822
 Alpha virt. eigenvalues --    5.93026   5.97067   6.02991   6.05331   6.07264
 Alpha virt. eigenvalues --    6.08742   6.09031   6.10862   6.19601   6.25640
 Alpha virt. eigenvalues --    6.31960   6.37885   6.40896   6.64869   6.75357
 Alpha virt. eigenvalues --    6.76332   6.83364   6.96571   7.05545   7.07455
 Alpha virt. eigenvalues --    7.18639   7.42399   7.43893   7.58824   7.74723
 Alpha virt. eigenvalues --    9.88338  10.59895  12.55202  12.90590  13.30391
 Alpha virt. eigenvalues --   13.43292  13.70931
  Beta  occ. eigenvalues --  -19.78299 -19.76593 -10.65953 -10.62261 -10.61536
  Beta  occ. eigenvalues --  -10.61437 -10.60327  -1.25281  -0.98979  -0.91725
  Beta  occ. eigenvalues --   -0.83316  -0.77214  -0.72128  -0.67219  -0.57319
  Beta  occ. eigenvalues --   -0.55580  -0.54181  -0.53985  -0.50144  -0.49442
  Beta  occ. eigenvalues --   -0.47677  -0.45330  -0.43134  -0.42632  -0.40803
  Beta  occ. eigenvalues --   -0.40197  -0.39241  -0.35191  -0.33276
  Beta virt. eigenvalues --   -0.04317   0.07328   0.08868   0.10426   0.11488
  Beta virt. eigenvalues --    0.12535   0.13717   0.14290   0.15473   0.15919
  Beta virt. eigenvalues --    0.16673   0.17409   0.19023   0.20211   0.21777
  Beta virt. eigenvalues --    0.23423   0.24518   0.26117   0.28547   0.30334
  Beta virt. eigenvalues --    0.32040   0.32218   0.33097   0.35402   0.36065
  Beta virt. eigenvalues --    0.37469   0.39541   0.40845   0.45447   0.45708
  Beta virt. eigenvalues --    0.47252   0.47832   0.48226   0.51455   0.51553
  Beta virt. eigenvalues --    0.51817   0.52839   0.53212   0.53901   0.54572
  Beta virt. eigenvalues --    0.54782   0.55476   0.55875   0.56407   0.57340
  Beta virt. eigenvalues --    0.58498   0.58678   0.60050   0.64132   0.64810
  Beta virt. eigenvalues --    0.67282   0.68967   0.69998   0.73277   0.73806
  Beta virt. eigenvalues --    0.77474   0.78553   0.79929   0.82710   0.83983
  Beta virt. eigenvalues --    0.85061   0.87057   0.87881   0.90240   0.91548
  Beta virt. eigenvalues --    0.93041   0.94508   0.95114   0.96408   0.98661
  Beta virt. eigenvalues --    0.99746   1.03921   1.04589   1.07154   1.07532
  Beta virt. eigenvalues --    1.09441   1.10492   1.11210   1.12672   1.13599
  Beta virt. eigenvalues --    1.13983   1.16039   1.16819   1.17529   1.18206
  Beta virt. eigenvalues --    1.20158   1.22313   1.22992   1.24092   1.25488
  Beta virt. eigenvalues --    1.26331   1.27585   1.28007   1.29081   1.30886
  Beta virt. eigenvalues --    1.33305   1.34507   1.35070   1.37076   1.38322
  Beta virt. eigenvalues --    1.38797   1.40019   1.40742   1.41353   1.43707
  Beta virt. eigenvalues --    1.45969   1.47175   1.48283   1.49838   1.50703
  Beta virt. eigenvalues --    1.51990   1.54545   1.56273   1.59794   1.61284
  Beta virt. eigenvalues --    1.63557   1.64402   1.65711   1.66866   1.67307
  Beta virt. eigenvalues --    1.73794   1.74970   1.78547   1.78585   1.80990
  Beta virt. eigenvalues --    1.92004   1.94986   1.99788   2.06734   2.12852
  Beta virt. eigenvalues --    2.21437   2.23172   2.28836   2.32312   2.36863
  Beta virt. eigenvalues --    2.38250   2.42664   2.42921   2.44448   2.46570
  Beta virt. eigenvalues --    2.48311   2.49024   2.50221   2.51309   2.56125
  Beta virt. eigenvalues --    2.57423   2.59801   2.60814   2.64801   2.68219
  Beta virt. eigenvalues --    2.69209   2.69328   2.70701   2.73432   2.76755
  Beta virt. eigenvalues --    2.78606   2.80297   2.81022   2.82827   2.85611
  Beta virt. eigenvalues --    2.87394   2.91003   2.91315   2.92249   2.94121
  Beta virt. eigenvalues --    2.94825   2.95131   2.96399   2.98932   2.99315
  Beta virt. eigenvalues --    3.02787   3.04223   3.07698   3.08627   3.10941
  Beta virt. eigenvalues --    3.12059   3.12372   3.13907   3.14517   3.15954
  Beta virt. eigenvalues --    3.16832   3.18081   3.18743   3.19724   3.20498
  Beta virt. eigenvalues --    3.21415   3.21691   3.23375   3.24420   3.27247
  Beta virt. eigenvalues --    3.28526   3.29663   3.32461   3.32583   3.33968
  Beta virt. eigenvalues --    3.37078   3.38063   3.40524   3.41502   3.42868
  Beta virt. eigenvalues --    3.44498   3.46412   3.47124   3.47376   3.50931
  Beta virt. eigenvalues --    3.52545   3.53517   3.55155   3.57160   3.57722
  Beta virt. eigenvalues --    3.59053   3.59398   3.60919   3.61952   3.65222
  Beta virt. eigenvalues --    3.66459   3.67200   3.68656   3.69386   3.73415
  Beta virt. eigenvalues --    3.76835   3.77254   3.79501   3.82708   3.83169
  Beta virt. eigenvalues --    3.85625   3.86564   3.87194   3.89736   3.90381
  Beta virt. eigenvalues --    3.91051   3.93561   3.94177   3.94941   3.96191
  Beta virt. eigenvalues --    3.97852   3.98493   3.99880   4.00095   4.00969
  Beta virt. eigenvalues --    4.02029   4.05035   4.06073   4.09026   4.09610
  Beta virt. eigenvalues --    4.11809   4.13042   4.13942   4.15957   4.17145
  Beta virt. eigenvalues --    4.18499   4.19503   4.21266   4.21840   4.23685
  Beta virt. eigenvalues --    4.24467   4.25137   4.26048   4.26538   4.28650
  Beta virt. eigenvalues --    4.31985   4.35572   4.35847   4.36785   4.38176
  Beta virt. eigenvalues --    4.40287   4.41415   4.42633   4.44106   4.45103
  Beta virt. eigenvalues --    4.48939   4.49995   4.51508   4.53607   4.58370
  Beta virt. eigenvalues --    4.61211   4.62979   4.68220   4.70299   4.72773
  Beta virt. eigenvalues --    4.75792   4.78554   4.81652   4.82238   4.83409
  Beta virt. eigenvalues --    4.87558   4.90285   4.91785   4.94676   4.95188
  Beta virt. eigenvalues --    4.99334   5.00200   5.00489   5.00883   5.02812
  Beta virt. eigenvalues --    5.04243   5.06938   5.07593   5.09721   5.11607
  Beta virt. eigenvalues --    5.13809   5.19643   5.21728   5.23436   5.27738
  Beta virt. eigenvalues --    5.28752   5.30900   5.31362   5.34417   5.35290
  Beta virt. eigenvalues --    5.36860   5.39393   5.40844   5.40905   5.43340
  Beta virt. eigenvalues --    5.47362   5.48677   5.49894   5.51426   5.55347
  Beta virt. eigenvalues --    5.58922   5.63936   5.65355   5.66644   5.67439
  Beta virt. eigenvalues --    5.68787   5.69263   5.74085   5.79024   5.79555
  Beta virt. eigenvalues --    5.89404   5.93095   5.97356   6.03923   6.05830
  Beta virt. eigenvalues --    6.07321   6.09007   6.09583   6.11073   6.19666
  Beta virt. eigenvalues --    6.26077   6.34101   6.38419   6.42334   6.65883
  Beta virt. eigenvalues --    6.77114   6.79069   6.84589   6.98318   7.06508
  Beta virt. eigenvalues --    7.08786   7.20928   7.42825   7.45788   7.60695
  Beta virt. eigenvalues --    7.75318   9.89213  10.60943  12.55676  12.90948
  Beta virt. eigenvalues --   13.30716  13.43297  13.70954
          Condensed to atoms (all electrons):
               1          2          3          4          5          6
     1  C    4.599121   0.392010   0.395613   0.411580   0.304032  -0.046559
     2  H    0.392010   0.686891  -0.034888  -0.059551  -0.050739  -0.002281
     3  H    0.395613  -0.034888   0.593371  -0.028768  -0.026432   0.006809
     4  H    0.411580  -0.059551  -0.028768   0.617130  -0.037742   0.004145
     5  O    0.304032  -0.050739  -0.026432  -0.037742   7.946174   0.071261
     6  O   -0.046559  -0.002281   0.006809   0.004145   0.071261   8.065508
     7  H    0.002296   0.004600  -0.000508   0.000448  -0.029139   0.201910
     8  C   -0.003836  -0.000098   0.000371  -0.000322   0.004463  -0.074610
     9  C    0.000306   0.000349  -0.000113   0.000021  -0.005492  -0.001089
    10  H    0.000080  -0.000240   0.000002   0.000035   0.000527   0.000271
    11  H    0.000207  -0.000755  -0.000099  -0.000038   0.000012  -0.000439
    12  C   -0.000067   0.000044  -0.000013  -0.000003  -0.000043   0.000422
    13  H    0.000068  -0.000019  -0.000031  -0.000009  -0.000585   0.003468
    14  H   -0.000999  -0.001590   0.000052   0.000391   0.013710  -0.002688
    15  C   -0.000003  -0.000002   0.000000   0.000000   0.000001  -0.000000
    16  H    0.000005  -0.000006  -0.000001   0.000000  -0.000001   0.000000
    17  H   -0.000000   0.000005   0.000000  -0.000000  -0.000011   0.000010
    18  H   -0.000000   0.000000  -0.000000  -0.000000  -0.000000   0.000000
    19  H   -0.000000  -0.000000   0.000000   0.000000   0.000002  -0.000004
    20  H    0.000002   0.000006   0.000001  -0.000000  -0.000031   0.000003
               7          8          9         10         11         12
     1  C    0.002296  -0.003836   0.000306   0.000080   0.000207  -0.000067
     2  H    0.004600  -0.000098   0.000349  -0.000240  -0.000755   0.000044
     3  H   -0.000508   0.000371  -0.000113   0.000002  -0.000099  -0.000013
     4  H    0.000448  -0.000322   0.000021   0.000035  -0.000038  -0.000003
     5  O   -0.029139   0.004463  -0.005492   0.000527   0.000012  -0.000043
     6  O    0.201910  -0.074610  -0.001089   0.000271  -0.000439   0.000422
     7  H    0.410436   0.217116  -0.006373  -0.007725  -0.006895   0.001472
     8  C    0.217116   5.165683   0.311953   0.404314   0.404331  -0.047043
     9  C   -0.006373   0.311953   4.905248  -0.031356  -0.044670   0.322228
    10  H   -0.007725   0.404314  -0.031356   0.540951  -0.030228  -0.002629
    11  H   -0.006895   0.404331  -0.044670  -0.030228   0.563249  -0.001992
    12  C    0.001472  -0.047043   0.322228  -0.002629  -0.001992   4.906401
    13  H   -0.002073  -0.030836   0.403021  -0.005111   0.006819  -0.032604
    14  H   -0.003118  -0.038545   0.413540   0.006300  -0.004406  -0.041526
    15  C   -0.000069   0.005577  -0.049117  -0.000102  -0.000129   0.342274
    16  H   -0.000050  -0.003163  -0.036935   0.000103   0.002709   0.411844
    17  H   -0.000161  -0.001995  -0.036172   0.001949  -0.000125   0.410636
    18  H    0.000004  -0.000398   0.007382   0.000007   0.000003  -0.034563
    19  H   -0.000000  -0.000037  -0.003909   0.000011  -0.000015  -0.037486
    20  H   -0.000010   0.000059  -0.003888  -0.000015   0.000011  -0.037159
              13         14         15         16         17         18
     1  C    0.000068  -0.000999  -0.000003   0.000005  -0.000000  -0.000000
     2  H   -0.000019  -0.001590  -0.000002  -0.000006   0.000005   0.000000
     3  H   -0.000031   0.000052   0.000000  -0.000001   0.000000  -0.000000
     4  H   -0.000009   0.000391   0.000000   0.000000  -0.000000  -0.000000
     5  O   -0.000585   0.013710   0.000001  -0.000001  -0.000011  -0.000000
     6  O    0.003468  -0.002688  -0.000000   0.000000   0.000010   0.000000
     7  H   -0.002073  -0.003118  -0.000069  -0.000050  -0.000161   0.000004
     8  C   -0.030836  -0.038545   0.005577  -0.003163  -0.001995  -0.000398
     9  C    0.403021   0.413540  -0.049117  -0.036935  -0.036172   0.007382
    10  H   -0.005111   0.006300  -0.000102   0.000103   0.001949   0.000007
    11  H    0.006819  -0.004406  -0.000129   0.002709  -0.000125   0.000003
    12  C   -0.032604  -0.041526   0.342274   0.411844   0.410636  -0.034563
    13  H    0.585361  -0.031097  -0.003875   0.007370  -0.005608  -0.000074
    14  H   -0.031097   0.581229  -0.002659  -0.005247   0.007184  -0.000135
    15  C   -0.003875  -0.002659   4.847512  -0.034075  -0.034235   0.412865
    16  H    0.007370  -0.005247  -0.034075   0.608389  -0.038463  -0.005069
    17  H   -0.005608   0.007184  -0.034235  -0.038463   0.608122  -0.004839
    18  H   -0.000074  -0.000135   0.412865  -0.005069  -0.004839   0.582892
    19  H    0.002962  -0.000242   0.411123   0.007430  -0.005410  -0.030834
    20  H   -0.000283   0.002772   0.410111  -0.005409   0.007509  -0.030740
              19         20
     1  C   -0.000000   0.000002
     2  H   -0.000000   0.000006
     3  H    0.000000   0.000001
     4  H    0.000000  -0.000000
     5  O    0.000002  -0.000031
     6  O   -0.000004   0.000003
     7  H   -0.000000  -0.000010
     8  C   -0.000037   0.000059
     9  C   -0.003909  -0.003888
    10  H    0.000011  -0.000015
    11  H   -0.000015   0.000011
    12  C   -0.037486  -0.037159
    13  H    0.002962  -0.000283
    14  H   -0.000242   0.002772
    15  C    0.411123   0.410111
    16  H    0.007430  -0.005409
    17  H   -0.005410   0.007509
    18  H   -0.030834  -0.030740
    19  H    0.593414  -0.032721
    20  H   -0.032721   0.594842
          Atomic-Atomic Spin Densities.
               1          2          3          4          5          6
     1  C   -0.005527   0.003841   0.000610  -0.002671   0.000866  -0.001768
     2  H    0.003841   0.002058  -0.000805  -0.001303  -0.000971   0.003675
     3  H    0.000610  -0.000805  -0.001812   0.001073   0.000105  -0.000202
     4  H   -0.002671  -0.001303   0.001073   0.003936  -0.000537  -0.000358
     5  O    0.000866  -0.000971   0.000105  -0.000537   0.047898  -0.040655
     6  O   -0.001768   0.003675  -0.000202  -0.000358  -0.040655   0.576987
     7  H    0.000975  -0.003391   0.000063   0.001338   0.009998  -0.050807
     8  C    0.000918  -0.004430   0.000111   0.001156   0.012436  -0.089067
     9  C   -0.000239   0.000420  -0.000014  -0.000085  -0.002017   0.007366
    10  H   -0.000033   0.000147  -0.000002  -0.000027  -0.000246   0.002371
    11  H   -0.000202   0.001091  -0.000007  -0.000145  -0.000864   0.003389
    12  C    0.000039  -0.000073   0.000003   0.000005   0.000130  -0.000480
    13  H   -0.000019   0.000029   0.000001  -0.000006  -0.000184   0.000749
    14  H   -0.000183   0.000318  -0.000028  -0.000049  -0.001242   0.000983
    15  C   -0.000002   0.000005  -0.000000  -0.000000  -0.000010   0.000019
    16  H   -0.000003   0.000012  -0.000000  -0.000001  -0.000010   0.000017
    17  H   -0.000000   0.000002  -0.000000  -0.000000  -0.000004   0.000023
    18  H    0.000000  -0.000000   0.000000   0.000000   0.000000  -0.000000
    19  H    0.000000   0.000000  -0.000000  -0.000000  -0.000000   0.000000
    20  H   -0.000000   0.000000  -0.000000  -0.000000  -0.000001   0.000001
               7          8          9         10         11         12
     1  C    0.000975   0.000918  -0.000239  -0.000033  -0.000202   0.000039
     2  H   -0.003391  -0.004430   0.000420   0.000147   0.001091  -0.000073
     3  H    0.000063   0.000111  -0.000014  -0.000002  -0.000007   0.000003
     4  H    0.001338   0.001156  -0.000085  -0.000027  -0.000145   0.000005
     5  O    0.009998   0.012436  -0.002017  -0.000246  -0.000864   0.000130
     6  O   -0.050807  -0.089067   0.007366   0.002371   0.003389  -0.000480
     7  H   -0.096027   0.061380  -0.001309   0.001616   0.000865   0.000195
     8  C    0.061380   0.710741  -0.031981   0.003944   0.002750  -0.015206
     9  C   -0.001309  -0.031981  -0.027590   0.000158   0.000894   0.016561
    10  H    0.001616   0.003944   0.000158  -0.023506   0.003462  -0.001448
    11  H    0.000865   0.002750   0.000894   0.003462  -0.024095  -0.001438
    12  C    0.000195  -0.015206   0.016561  -0.001448  -0.001438   0.044854
    13  H   -0.000377  -0.003085   0.002423   0.000803   0.000015  -0.002904
    14  H    0.000666  -0.002934   0.002554  -0.000071   0.000687  -0.002402
    15  C   -0.000048   0.001784  -0.003214   0.000134   0.000174  -0.004257
    16  H   -0.000008   0.000329   0.000542   0.000085   0.000040  -0.000154
    17  H   -0.000062   0.001658  -0.000336   0.000278   0.000213  -0.001752
    18  H    0.000001  -0.000138   0.000218  -0.000009  -0.000012   0.000755
    19  H    0.000001   0.000017  -0.000016   0.000001   0.000001   0.000114
    20  H   -0.000007   0.000042  -0.000065   0.000004   0.000011  -0.000068
              13         14         15         16         17         18
     1  C   -0.000019  -0.000183  -0.000002  -0.000003  -0.000000   0.000000
     2  H    0.000029   0.000318   0.000005   0.000012   0.000002  -0.000000
     3  H    0.000001  -0.000028  -0.000000  -0.000000  -0.000000   0.000000
     4  H   -0.000006  -0.000049  -0.000000  -0.000001  -0.000000   0.000000
     5  O   -0.000184  -0.001242  -0.000010  -0.000010  -0.000004   0.000000
     6  O    0.000749   0.000983   0.000019   0.000017   0.000023  -0.000000
     7  H   -0.000377   0.000666  -0.000048  -0.000008  -0.000062   0.000001
     8  C   -0.003085  -0.002934   0.001784   0.000329   0.001658  -0.000138
     9  C    0.002423   0.002554  -0.003214   0.000542  -0.000336   0.000218
    10  H    0.000803  -0.000071   0.000134   0.000085   0.000278  -0.000009
    11  H    0.000015   0.000687   0.000174   0.000040   0.000213  -0.000012
    12  C   -0.002904  -0.002402  -0.004257  -0.000154  -0.001752   0.000755
    13  H    0.003616   0.000635   0.000669   0.000018   0.000174  -0.000050
    14  H    0.000635   0.006821   0.000692   0.000018   0.000110  -0.000045
    15  C    0.000669   0.000692   0.011936   0.000388   0.001045  -0.000792
    16  H    0.000018   0.000018   0.000388  -0.002518   0.000616  -0.000111
    17  H    0.000174   0.000110   0.001045   0.000616  -0.001909  -0.000279
    18  H   -0.000050  -0.000045  -0.000792  -0.000111  -0.000279   0.002061
    19  H    0.000019  -0.000016   0.000032  -0.000025   0.000029  -0.000025
    20  H    0.000025   0.000103   0.000190   0.000045   0.000000  -0.000138
              19         20
     1  C    0.000000  -0.000000
     2  H    0.000000   0.000000
     3  H   -0.000000  -0.000000
     4  H   -0.000000  -0.000000
     5  O   -0.000000  -0.000001
     6  O    0.000000   0.000001
     7  H    0.000001  -0.000007
     8  C    0.000017   0.000042
     9  C   -0.000016  -0.000065
    10  H    0.000001   0.000004
    11  H    0.000001   0.000011
    12  C    0.000114  -0.000068
    13  H    0.000019   0.000025
    14  H   -0.000016   0.000103
    15  C    0.000032   0.000190
    16  H   -0.000025   0.000045
    17  H    0.000029   0.000000
    18  H   -0.000025  -0.000138
    19  H   -0.000518   0.000004
    20  H    0.000004  -0.000499
 Mulliken charges and spin densities:
               1          2
     1  C   -0.053855  -0.003398
     2  H    0.066264   0.000624
     3  H    0.094633  -0.000904
     4  H    0.092683   0.002325
     5  O   -0.189966   0.024690
     6  O   -0.226138   0.412246
     7  H    0.217839  -0.074938
     8  C   -0.312984   0.650425
     9  C   -0.144934  -0.035729
    10  H    0.122857  -0.012341
    11  H    0.112452  -0.013171
    12  C   -0.160191   0.032474
    13  H    0.103134   0.002552
    14  H    0.107074   0.006618
    15  C   -0.305196   0.008743
    16  H    0.090569  -0.000721
    17  H    0.091605  -0.000195
    18  H    0.103500   0.001434
    19  H    0.095717  -0.000382
    20  H    0.094939  -0.000351
 Sum of Mulliken charges =  -0.00000   1.00000
 Mulliken charges and spin densities with hydrogens summed into heavy atoms:
               1          2
     1  C    0.199726  -0.001352
     5  O   -0.189966   0.024690
     6  O   -0.008299   0.337308
     8  C   -0.077676   0.624912
     9  C    0.065273  -0.026560
    12  C    0.021983   0.031558
    15  C   -0.011040   0.009444
 APT charges:
               1
     1  C    0.448628
     2  H   -0.043474
     3  H   -0.007842
     4  H   -0.034213
     5  O   -0.415893
     6  O    0.117444
     7  H   -0.341047
     8  C    0.443217
     9  C   -0.086944
    10  H   -0.050409
    11  H   -0.062519
    12  C    0.181039
    13  H   -0.021033
    14  H   -0.004198
    15  C    0.047402
    16  H   -0.044865
    17  H   -0.045165
    18  H   -0.038126
    19  H   -0.021536
    20  H   -0.020468
 Sum of APT charges =  -0.00000
 APT charges with hydrogens summed into heavy atoms:
               1
     1  C    0.363100
     5  O   -0.415893
     6  O   -0.223603
     8  C    0.330289
     9  C   -0.112175
    12  C    0.091010
    15  C   -0.032728
 Electronic spatial extent (au):  <R**2>=           1483.9080
 Charge=              0.0000 electrons
 Dipole moment (field-independent basis, Debye):
    X=             -1.1780    Y=             -0.2313    Z=              2.1392  Tot=              2.4530
 Quadrupole moment (field-independent basis, Debye-Ang):
   XX=            -45.4274   YY=            -45.1099   ZZ=            -46.8928
   XY=             -3.3416   XZ=              5.0080   YZ=             -0.7970
 Traceless Quadrupole moment (field-independent basis, Debye-Ang):
   XX=              0.3826   YY=              0.7001   ZZ=             -1.0828
   XY=             -3.3416   XZ=              5.0080   YZ=             -0.7970
 Octapole moment (field-independent basis, Debye-Ang**2):
  XXX=             27.5207  YYY=              0.3353  ZZZ=             -2.5156  XYY=              7.1185
  XXY=             -8.2139  XXZ=              9.9006  XZZ=              3.8645  YZZ=             -0.0769
  YYZ=             -0.1312  XYZ=             -0.3817
 Hexadecapole moment (field-independent basis, Debye-Ang**3):
 XXXX=          -1512.7375 YYYY=           -242.3279 ZZZZ=           -147.0071 XXXY=            -31.5522
 XXXZ=             13.4326 YYYX=            -13.3505 YYYZ=             -5.1033 ZZZX=             -3.1521
 ZZZY=             -1.3335 XXYY=           -304.7034 XXZZ=           -290.7372 YYZZ=            -71.2850
 XXYZ=             -7.5486 YYXZ=              1.2242 ZZXY=             -1.3412
 N-N= 3.149187800263D+02 E-N=-1.443464717276D+03  KE= 3.464997872657D+02
  Exact polarizability: 115.624  -8.653  75.675  -3.825   1.204  66.417
 Approx polarizability:  92.739  -5.956  85.401  -5.344   0.115  78.517
                          Isotropic Fermi Contact Couplings
        Atom                 a.u.       MegaHertz       Gauss      10(-4) cm-1
     1  C(13)             -0.00344      -3.87147      -1.38144      -1.29138
     2  H(1)               0.00225      10.06339       3.59087       3.35679
     3  H(1)              -0.00012      -0.51800      -0.18483      -0.17279
     4  H(1)               0.00059       2.62191       0.93556       0.87457
     5  O(17)              0.01461      -8.85530      -3.15979      -2.95381
     6  O(17)              0.04488     -27.20418      -9.70713      -9.07434
     7  H(1)              -0.02295    -102.58639     -36.60538     -34.21914
     8  C(13)              0.09412     105.81057      37.75584      35.29461
     9  C(13)             -0.01113     -12.51731      -4.46649      -4.17532
    10  H(1)              -0.00381     -17.01955      -6.07300      -5.67711
    11  H(1)              -0.00438     -19.56304      -6.98058      -6.52553
    12  C(13)              0.03795      42.65988      15.22210      14.22980
    13  H(1)               0.00158       7.04312       2.51316       2.34933
    14  H(1)               0.00472      21.10047       7.52917       7.03836
    15  C(13)              0.00372       4.18216       1.49230       1.39502
    16  H(1)              -0.00054      -2.39819      -0.85574      -0.79995
    17  H(1)              -0.00063      -2.83751      -1.01249      -0.94649
    18  H(1)               0.00086       3.83021       1.36671       1.27762
    19  H(1)              -0.00012      -0.55655      -0.19859      -0.18565
    20  H(1)              -0.00014      -0.63170      -0.22541      -0.21071
 --------------------------------------------------------
       Center         ----  Spin Dipole Couplings  ----
                      3XX-RR        3YY-RR        3ZZ-RR
 --------------------------------------------------------
     1   Atom       -0.001744      0.000561      0.001183
     2   Atom       -0.001500     -0.002327      0.003827
     3   Atom       -0.000808      0.002137     -0.001329
     4   Atom        0.003696     -0.002474     -0.001222
     5   Atom        0.226734     -0.206439     -0.020294
     6   Atom        1.054371     -0.888209     -0.166162
     7   Atom        0.153884     -0.102876     -0.051008
     8   Atom        0.514535     -0.340035     -0.174500
     9   Atom        0.027790     -0.011193     -0.016597
    10   Atom       -0.008287      0.038315     -0.030028
    11   Atom       -0.002772     -0.042015      0.044788
    12   Atom        0.052489     -0.027065     -0.025424
    13   Atom        0.002009     -0.005712      0.003703
    14   Atom       -0.002898      0.010547     -0.007648
    15   Atom        0.003570      0.002372     -0.005942
    16   Atom        0.001745     -0.004097      0.002352
    17   Atom        0.008656     -0.001846     -0.006810
    18   Atom        0.002178     -0.000890     -0.001288
    19   Atom        0.001098     -0.001372      0.000274
    20   Atom        0.000569      0.001786     -0.002355
 --------------------------------------------------------
                        XY            XZ            YZ
 --------------------------------------------------------
     1   Atom       -0.006152      0.004292     -0.004048
     2   Atom       -0.003548      0.003300     -0.005092
     3   Atom       -0.003516      0.001626     -0.003312
     4   Atom       -0.004039      0.005036     -0.002346
     5   Atom       -0.129825     -0.245231      0.070517
     6   Atom       -0.058387     -1.193923      0.038545
     7   Atom       -0.066709     -0.141398      0.033188
     8   Atom       -0.151267     -0.410340      0.069138
     9   Atom        0.011814      0.001450      0.004732
    10   Atom       -0.016204     -0.015019     -0.021409
    11   Atom       -0.011089      0.005496     -0.010025
    12   Atom        0.017502     -0.020348     -0.004663
    13   Atom        0.003320      0.007819      0.005199
    14   Atom        0.006309     -0.000181      0.003097
    15   Atom        0.011224      0.005469      0.005194
    16   Atom        0.004658     -0.005372     -0.002904
    17   Atom       -0.003198      0.000174      0.000625
    18   Atom        0.001294     -0.000568      0.000596
    19   Atom        0.001782      0.001768      0.000935
    20   Atom        0.001926      0.000342      0.000564
 --------------------------------------------------------


 ---------------------------------------------------------------------------------
              Anisotropic Spin Dipole Couplings in Principal Axis System
 ---------------------------------------------------------------------------------

       Atom             a.u.   MegaHertz   Gauss  10(-4) cm-1        Axes

              Baa    -0.0069    -0.932    -0.333    -0.311  0.8003  0.5851 -0.1312
     1 C(13)  Bbb    -0.0028    -0.370    -0.132    -0.124 -0.2510  0.5256  0.8128
              Bcc     0.0097     1.303     0.465     0.434 -0.5445  0.6176 -0.5675
 
              Baa    -0.0060    -3.187    -1.137    -1.063  0.4592  0.8421  0.2829
     2 H(1)   Bbb    -0.0028    -1.509    -0.538    -0.503  0.7861 -0.2368 -0.5710
              Bcc     0.0088     4.696     1.675     1.566  0.4138 -0.4846  0.7707
 
              Baa    -0.0036    -1.899    -0.677    -0.633  0.4502  0.6400  0.6226
     3 H(1)   Bbb    -0.0027    -1.435    -0.512    -0.479  0.7530  0.1025 -0.6500
              Bcc     0.0062     3.334     1.190     1.112 -0.4798  0.7615 -0.4358
 
              Baa    -0.0045    -2.416    -0.862    -0.806  0.5892  0.7027 -0.3988
     4 H(1)   Bbb    -0.0043    -2.268    -0.809    -0.756 -0.1884  0.5994  0.7779
              Bcc     0.0088     4.684     1.671     1.562  0.7857 -0.3832  0.4856
 
              Baa    -0.2424    17.543     6.260     5.852  0.2533  0.9670 -0.0274
     5 O(17)  Bbb    -0.1705    12.337     4.402     4.115  0.4971 -0.1058  0.8612
              Bcc     0.4129   -29.880   -10.662    -9.967  0.8299 -0.2317 -0.5075
 
              Baa    -0.8975    64.944    23.174    21.663  0.4902 -0.3057  0.8163
     6 O(17)  Bbb    -0.8893    64.347    22.960    21.464  0.1808  0.9518  0.2478
              Bcc     1.7868  -129.290   -46.134   -43.127  0.8527 -0.0261 -0.5218
 
              Baa    -0.1233   -65.787   -23.474   -21.944  0.4795  0.1660  0.8617
     7 H(1)   Bbb    -0.1188   -63.405   -22.625   -21.150  0.1082  0.9633 -0.2458
              Bcc     0.2421   129.193    46.099    43.094  0.8708 -0.2111 -0.4439
 
              Baa    -0.3670   -49.253   -17.575   -16.429  0.3939  0.7091  0.5848
     8 C(13)  Bbb    -0.3646   -48.923   -17.457   -16.319  0.2063 -0.6882  0.6956
              Bcc     0.7316    98.176    35.032    32.748  0.8957 -0.1534 -0.4173
 
              Baa    -0.0199    -2.675    -0.954    -0.892  0.1236 -0.5965  0.7930
     9 C(13)  Bbb    -0.0113    -1.518    -0.542    -0.506 -0.2505  0.7545  0.6066
              Bcc     0.0312     4.192     1.496     1.398  0.9602  0.2736  0.0562
 
              Baa    -0.0460   -24.560    -8.764    -8.192  0.4612  0.3005  0.8349
    10 H(1)   Bbb    -0.0010    -0.531    -0.189    -0.177  0.8600  0.0801 -0.5039
              Bcc     0.0470    25.091     8.953     8.369 -0.2183  0.9504 -0.2215
 
              Baa    -0.0457   -24.386    -8.701    -8.134  0.2379  0.9669  0.0927
    11 H(1)   Bbb    -0.0012    -0.618    -0.220    -0.206  0.9615 -0.2209 -0.1632
              Bcc     0.0469    25.003     8.922     8.340  0.1374 -0.1279  0.9822
 
              Baa    -0.0310    -4.159    -1.484    -1.387 -0.0424  0.8369  0.5457
    12 C(13)  Bbb    -0.0302    -4.053    -1.446    -1.352  0.3057 -0.5092  0.8045
              Bcc     0.0612     8.212     2.930     2.739  0.9512  0.2010 -0.2343
 
              Baa    -0.0080    -4.280    -1.527    -1.428  0.0277  0.9068 -0.4206
    13 H(1)   Bbb    -0.0047    -2.515    -0.897    -0.839  0.7835 -0.2810 -0.5543
              Bcc     0.0127     6.795     2.424     2.266  0.6208  0.3142  0.7183
 
              Baa    -0.0086    -4.565    -1.629    -1.523  0.3090 -0.2508  0.9174
    14 H(1)   Bbb    -0.0049    -2.596    -0.926    -0.866  0.8819 -0.2856 -0.3751
              Bcc     0.0134     7.161     2.555     2.389  0.3561  0.9249  0.1329
 
              Baa    -0.0085    -1.134    -0.405    -0.378 -0.2043 -0.2431  0.9482
    15 C(13)  Bbb    -0.0083    -1.110    -0.396    -0.370 -0.6958  0.7174  0.0340
              Bcc     0.0167     2.244     0.801     0.748  0.6885  0.6529  0.3158
 
              Baa    -0.0067    -3.561    -1.271    -1.188 -0.4892  0.8721 -0.0105
    16 H(1)   Bbb    -0.0028    -1.520    -0.542    -0.507  0.5616  0.3242  0.7613
              Bcc     0.0095     5.081     1.813     1.695  0.6673  0.3665 -0.6484
 
              Baa    -0.0069    -3.687    -1.316    -1.230 -0.0415 -0.1481  0.9881
    17 H(1)   Bbb    -0.0026    -1.410    -0.503    -0.470  0.2669  0.9514  0.1538
              Bcc     0.0096     5.097     1.819     1.700  0.9628 -0.2701 -0.0000
 
              Baa    -0.0021    -1.116    -0.398    -0.372  0.2918 -0.6583  0.6939
    18 H(1)   Bbb    -0.0006    -0.314    -0.112    -0.105 -0.1706  0.6780  0.7150
              Bcc     0.0027     1.430     0.510     0.477  0.9411  0.3270 -0.0856
 
              Baa    -0.0023    -1.230    -0.439    -0.410 -0.4619  0.8869 -0.0048
    19 H(1)   Bbb    -0.0010    -0.550    -0.196    -0.184 -0.4867 -0.2490  0.8373
              Bcc     0.0033     1.781     0.635     0.594  0.7414  0.3891  0.5467
 
              Baa    -0.0024    -1.299    -0.463    -0.433 -0.0394 -0.1147  0.9926
    20 H(1)   Bbb    -0.0008    -0.448    -0.160    -0.149  0.8095 -0.5860 -0.0356
              Bcc     0.0033     1.747     0.623     0.583  0.5858  0.8021  0.1159
 

 ---------------------------------------------------------------------------------

 Calling FoFJK, ICntrl=  10100127 FMM=F ISym2X=0 I1Cent= 0 IOpClX= 1 NMat=1 NMatS=1 NMatT=0.
 ***** Axes restored to original set *****
 -------------------------------------------------------------------
 Center     Atomic                   Forces (Hartrees/Bohr)
 Number     Number              X              Y              Z
 -------------------------------------------------------------------
      1        6          -0.000000196    0.000000138    0.000000199
      2        1          -0.000000501   -0.000000937    0.000000173
      3        1           0.000000784    0.000000071   -0.000000456
      4        1           0.000000231    0.000000648   -0.000000056
      5        8           0.000079518    0.000059806    0.000105829
      6        8          -0.000096409   -0.000081150   -0.000118124
      7        1           0.000001371    0.000001405   -0.000000175
      8        6           0.000068243    0.000145987    0.000026281
      9        6          -0.000054082   -0.000126055   -0.000016337
     10        1           0.000000916    0.000000042    0.000001191
     11        1          -0.000001494    0.000001801   -0.000000464
     12        6          -0.000001382    0.000000577   -0.000000027
     13        1          -0.000001600   -0.000000476   -0.000001487
     14        1           0.000001089   -0.000000986    0.000000728
     15        6          -0.000000805    0.000003006    0.000001286
     16        1           0.000003458   -0.000003447    0.000000762
     17        1          -0.000000773    0.000000571    0.000000027
     18        1          -0.000000119   -0.000000513   -0.000000673
     19        1           0.000001377   -0.000000136    0.000000931
     20        1           0.000000372   -0.000000353    0.000000391
 -------------------------------------------------------------------
 Cartesian Forces:  Max     0.000145987 RMS     0.000040154
 FormGI is forming the generalized inverse of G from B-inverse, IUseBI=4.

 GradGradGradGradGradGradGradGradGradGradGradGradGradGradGradGradGradGrad
 Berny optimization.
 Internal  Forces:  Max     0.000188305 RMS     0.000028527
 Search for a saddle point.
 Step number   1 out of a maximum of  120
 All quantities printed in internal units (Hartrees-Bohrs-Radians)
 Swapping is turned off.
 Second derivative matrix not updated -- analytic derivatives used.
 ITU=  0
     Eigenvalues ---   -0.07303   0.00068   0.00130   0.00221   0.00285
     Eigenvalues ---    0.00611   0.01582   0.02395   0.03046   0.03207
     Eigenvalues ---    0.03257   0.03685   0.03777   0.03843   0.03941
     Eigenvalues ---    0.04594   0.04599   0.06584   0.06891   0.07027
     Eigenvalues ---    0.08495   0.08523   0.08790   0.09614   0.10643
     Eigenvalues ---    0.12208   0.13031   0.13117   0.13421   0.15935
     Eigenvalues ---    0.16004   0.16309   0.16751   0.17993   0.18538
     Eigenvalues ---    0.21477   0.25731   0.27114   0.29828   0.31180
     Eigenvalues ---    0.31958   0.32873   0.33141   0.33512   0.33724
     Eigenvalues ---    0.33785   0.33901   0.34195   0.34437   0.34685
     Eigenvalues ---    0.34722   0.35028   0.35534   0.40418
 Eigenvectors required to have negative eigenvalues:
                          R7        R6        R5        A8        D12
   1                    0.69134  -0.66363   0.15155  -0.08045  -0.07847
                          D16       D11       D14       D13       D15
   1                    0.07586  -0.07185   0.07043  -0.06642   0.06381
 RFO step:  Lambda0=1.605660188D-10 Lambda=-6.16201498D-05.
 Linear search not attempted -- option 19 set.
 Iteration  1 RMS(Cart)=  0.10388523 RMS(Int)=  0.00376193
 Iteration  2 RMS(Cart)=  0.00548900 RMS(Int)=  0.00001891
 Iteration  3 RMS(Cart)=  0.00002212 RMS(Int)=  0.00001536
 Iteration  4 RMS(Cart)=  0.00000000 RMS(Int)=  0.00001536
 Variable       Old X    -DE/DX   Delta X   Delta X   Delta X     New X
                                 (Linear)    (Quad)   (Total)
    R1        2.06225   0.00000   0.00000   0.00024   0.00024   2.06249
    R2        2.05627  -0.00000   0.00000   0.00001   0.00001   2.05629
    R3        2.05723   0.00000   0.00000  -0.00007  -0.00007   2.05716
    R4        2.68354   0.00000   0.00000   0.00001   0.00000   2.68355
    R5        2.66354  -0.00000   0.00000  -0.00014  -0.00014   2.66340
    R6        2.20075   0.00000   0.00000  -0.00160  -0.00160   2.19915
    R7        2.57240   0.00000   0.00000   0.00397   0.00397   2.57636
    R8        2.83466  -0.00000   0.00000  -0.00041  -0.00041   2.83425
    R9        2.05312  -0.00000   0.00000  -0.00004  -0.00004   2.05308
   R10        2.05357  -0.00000   0.00000  -0.00015  -0.00015   2.05343
   R11        2.90337   0.00000   0.00000   0.00034   0.00034   2.90371
   R12        2.06200  -0.00000   0.00000   0.00004   0.00004   2.06204
   R13        2.06370   0.00000   0.00000  -0.00005  -0.00005   2.06365
   R14        2.88216   0.00000   0.00000  -0.00004  -0.00004   2.88212
   R15        2.06322   0.00000   0.00000   0.00000   0.00000   2.06322
   R16        2.06292   0.00000   0.00000  -0.00007  -0.00007   2.06284
   R17        2.05822   0.00000   0.00000  -0.00000  -0.00000   2.05822
   R18        2.05968   0.00000   0.00000  -0.00002  -0.00002   2.05966
   R19        2.05979   0.00000   0.00000   0.00004   0.00004   2.05983
    A1        1.91812  -0.00000   0.00000  -0.00010  -0.00010   1.91801
    A2        1.91614  -0.00000   0.00000   0.00005   0.00005   1.91619
    A3        1.93525   0.00000   0.00000  -0.00029  -0.00029   1.93496
    A4        1.92479   0.00000   0.00000   0.00020   0.00020   1.92499
    A5        1.83727  -0.00000   0.00000   0.00025   0.00025   1.83752
    A6        1.93110  -0.00000   0.00000  -0.00009  -0.00009   1.93101
    A7        1.88045  -0.00000   0.00000  -0.00023  -0.00023   1.88022
    A8        1.81529   0.00000   0.00000   0.00193   0.00193   1.81722
    A9        1.82110  -0.00000   0.00000   0.00285   0.00284   1.82394
   A10        1.77608  -0.00000   0.00000  -0.00642  -0.00641   1.76967
   A11        1.79853   0.00001   0.00000   0.00411   0.00410   1.80264
   A12        2.03315   0.00009   0.00000  -0.00120  -0.00126   2.03189
   A13        2.02380  -0.00008   0.00000   0.00097   0.00099   2.02479
   A14        1.96652  -0.00000   0.00000  -0.00026  -0.00023   1.96629
   A15        1.96513   0.00000   0.00000  -0.00017  -0.00017   1.96496
   A16        1.91525  -0.00000   0.00000  -0.00035  -0.00035   1.91490
   A17        1.91327   0.00000   0.00000   0.00247   0.00247   1.91574
   A18        1.90542  -0.00000   0.00000  -0.00000  -0.00000   1.90542
   A19        1.90227  -0.00000   0.00000  -0.00013  -0.00013   1.90214
   A20        1.85945   0.00000   0.00000  -0.00193  -0.00193   1.85752
[...]
 5,0.00070957,0.00178523,0.00183265,0.00045121,0.00079319,-0.00001090,0
 .00117945,0.00021899,0.00091588,0.00166911,0.03029444,-0.02296934,-0.1
 0574040,0.00488134,0.08689981,0.09225198,-0.03146531,-0.06189577,0.238
 99235,0.00144229,0.00434218,0.00240995,0.00017577,-0.00058689,-0.00092
 326,-0.00015733,-0.00027864,0.00002269,-0.00042476,-0.00015902,-0.0005
 8697,-0.00072271,-0.01098054,0.00746318,0.03658636,0.00161827,-0.03001
 645,-0.03825887,-0.01166855,0.02186513,0.11637698,0.55253942,0.0011030
 1,0.00413097,0.00242269,0.00011186,-0.00068337,-0.00069728,-0.00007728
 ,-0.00036103,-0.00010332,-0.00038330,-0.00008950,-0.00062473,0.0005964
 5,-0.01162210,0.00715861,0.04716290,-0.00524413,-0.03281256,-0.0452560
 4,0.01333280,0.00446027,0.11317930,-0.02167307,0.47133376,0.00100336,0
 .00176948,0.00126828,-0.00029354,-0.00035414,-0.00055430,-0.00024966,-
 0.00039280,0.00000966,-0.00012867,0.00000174,-0.00032419,0.00081276,-0
 .00549132,0.00332958,0.00717139,0.00288661,-0.01045853,-0.02731931,0.0
 1052429,0.00144242,-0.09031059,0.01500464,-0.06985715,0.44597508,-0.00
 056503,-0.00038779,-0.00034359,0.00001626,0.00012582,-0.00016236,-0.00
 007182,0.00012556,0.00010835,0.00010038,-0.00014458,0.00004479,0.00060
 480,0.00053571,-0.00051652,-0.00261121,-0.00002833,0.00239874,0.009396
 02,-0.00408786,0.00033282,0.01295256,-0.09933361,0.03982258,0.06473909
 ,0.56518637,-0.00110297,-0.00195814,-0.00119300,0.00022288,0.00031227,
 0.00052991,0.00024903,0.00030802,-0.00005008,0.00019638,0.00012340,0.0
 0031045,0.00036900,0.00560617,-0.00334579,-0.00160810,-0.00482103,0.00
 656872,0.00808838,-0.00238693,-0.00212234,-0.06282987,0.03888130,-0.15
 719174,0.00485286,0.01249982,0.53286963,0.00074562,0.00125522,0.000481
 09,0.00004766,-0.00007985,-0.00029960,-0.00009944,-0.00008319,0.000061
 23,-0.00018704,-0.00003862,-0.00013639,-0.00040308,-0.00372458,0.00270
 353,0.00631969,0.00184929,-0.00688030,-0.01633532,-0.00703195,0.011410
 35,-0.06349505,-0.09597299,0.02815629,0.00886459,0.01770812,-0.0084149
 2,0.06497544,-0.00024930,-0.00088982,-0.00062016,0.00002050,0.00018056
 ,0.00025722,0.00004127,0.00012246,0.00003531,0.00005066,0.00005134,0.0
 0013000,0.00053351,0.00194627,-0.00146304,-0.00346541,0.00016760,0.003
 26743,0.00628520,-0.00028809,-0.00393715,-0.08345022,-0.25083200,0.091
 10468,-0.00601722,-0.00732723,0.00423707,0.09133345,0.26818551,-0.0003
 4343,-0.00069353,-0.00026169,0.00004642,0.00016687,0.00007344,-0.00001
 872,0.00004032,0.00003009,0.00008547,0.00003246,0.00009272,0.00026189,
 0.00153807,-0.00139810,-0.00307165,-0.00082983,0.00303182,0.00795836,0
 .00376342,-0.00523628,0.02443136,0.09749652,-0.08948131,0.01025048,0.0
 1919362,-0.00639170,-0.02894578,-0.10341764,0.09154540,0.00109476,0.00
 098191,0.00015249,-0.00055802,-0.00060645,0.00005630,-0.00004875,-0.00
 019056,-0.00012141,-0.00024840,-0.00003762,-0.00005208,-0.00071960,-0.
 00410661,0.00365206,0.00619403,0.00243411,-0.00726089,-0.00959518,0.01
 061115,0.01375934,-0.04694418,-0.04875829,-0.05239981,-0.00326738,-0.0
 1367362,-0.01289263,0.00017907,-0.00766134,-0.00816237,0.05257774,-0.0
 0023151,-0.00048831,-0.00032490,-0.00014668,0.00017994,0.00014380,0.00
 001458,0.00007146,0.00004644,0.00005707,0.00001372,0.00003504,0.000280
 52,0.00106651,-0.00060488,-0.00055260,-0.00021153,0.00179953,0.0006116
 7,-0.00395943,-0.00421340,-0.05796089,-0.17786684,-0.12418149,0.004307
 92,0.01061458,0.00884518,-0.00496841,-0.01381854,-0.01889334,0.0580465
 8,0.18300967,-0.00028930,-0.00096772,-0.00060719,0.00020354,0.00043007
 ,0.00020062,-0.00003427,0.00012423,0.00011521,0.00004288,0.00010070,0.
 00014695,0.00043169,0.00180028,-0.00149830,-0.00200462,-0.00030243,0.0
 0333330,0.00290766,-0.00563102,-0.00680957,-0.06338840,-0.12541608,-0.
 17946371,-0.00388108,-0.01775784,-0.01365500,0.00342255,0.00956701,0.0
 1015865,0.06494655,0.13543501,0.18934233,-0.00030190,-0.00031686,-0.00
 013182,0.00007311,0.00003535,0.00006659,0.00005435,0.00009992,-0.00002
 992,0.00005778,-0.00002023,0.00005725,-0.00044832,0.00062111,-0.000230
 87,-0.00058011,-0.00038261,0.00188068,0.00286057,-0.00041543,-0.003317
 64,-0.02598902,0.01161785,-0.00454120,-0.14086497,0.02244442,0.0374275
 4,0.00160512,-0.00085534,0.00063028,0.00186710,-0.00053414,0.00062279,
 0.46400374,0.00015770,-0.00002091,-0.00002645,0.00004695,0.00005784,0.
 00008601,0.00003261,-0.00000583,-0.00000906,-0.00001817,0.00004887,0.0
 0001088,-0.00032008,0.00080488,-0.00058013,-0.00023980,-0.00055992,0.0
 0061171,0.00033301,-0.00028214,0.00088155,0.01416392,-0.00782820,0.001
 54973,0.02498687,-0.08556638,-0.01697951,-0.00046151,0.00040337,0.0000
 6323,-0.00100794,0.00061937,-0.00051408,0.06192376,0.56564234,0.000904
 26,0.00127102,0.00075352,-0.00016928,-0.00020448,-0.00031624,-0.000171
 18,-0.00025623,0.00002137,-0.00015637,0.00000533,-0.00018179,0.0003386
 2,-0.00445979,0.00282106,0.00248930,0.00335869,-0.00552304,-0.00802203
 ,0.00246356,0.00281861,-0.01841793,0.00777332,0.00405118,0.02254085,-0
 .01039588,-0.08300696,0.00034404,-0.00039505,-0.00053574,0.00032792,0.
 00037178,-0.00005102,-0.01025175,0.01523728,0.52870667,0.00001845,-0.0
 0031407,-0.00023408,0.00004759,0.00008018,0.00011238,0.00002069,0.0000
 3838,0.00000793,0.00001265,0.00007216,0.00008085,-0.00004171,-0.000190
 81,0.00041516,0.00033113,0.00059230,0.00019663,0.00040742,-0.00067553,
 -0.00083415,-0.00554675,-0.01346086,-0.01420028,-0.05044276,-0.0290312
 0,-0.02378618,0.00028117,0.00066090,0.00093303,-0.00083466,0.00196066,
 -0.00320324,0.00088587,0.02428546,0.02090295,0.05975897,0.00009293,-0.
 00009625,-0.00006027,0.00004465,0.00001815,0.00010907,0.00000376,-0.00
 001964,-0.00001849,-0.00000346,0.00006115,0.00005113,0.00001338,-0.000
 17091,0.00025034,-0.00001143,0.00026756,-0.00028053,-0.00039551,0.0002
 3867,0.00016697,0.00273031,0.01024967,0.00934161,-0.02937464,-0.186499
 94,-0.12489005,-0.00063187,0.00089828,-0.00053254,0.00235380,0.0001922
 1,0.00239025,-0.00110394,-0.00941168,-0.00840782,0.02698179,0.19993328
 ,0.00014669,0.00004235,-0.00003694,-0.00006327,0.00000669,-0.00004837,
 -0.00002777,0.00000132,0.00002599,-0.00001136,-0.00000766,-0.00001611,
 -0.00018705,-0.00058810,0.00052949,0.00018912,0.00072891,-0.00025336,-
 0.00014150,-0.00027691,-0.00010991,-0.00543742,-0.01916924,-0.01871874
 ,-0.02474639,-0.12386953,-0.16540810,0.00069432,0.00011554,0.00094335,
 -0.00265671,0.00240033,-0.00303054,-0.00026732,-0.00829058,-0.00762470
 ,0.02928446,0.13750340,0.18201945,-0.00053376,-0.00028744,-0.00005160,
 -0.00004301,-0.00004163,-0.00009478,0.00000755,0.00000866,-0.00000792,
 0.00011225,0.00001773,0.00001667,-0.00027803,0.00004849,0.00013142,-0.
 00008729,-0.00006428,0.00035252,0.00093186,0.00036051,-0.00074957,0.00
 879979,0.01609607,-0.00841449,-0.11141019,-0.09972657,0.05592209,-0.00
 203633,0.00198846,-0.00311030,0.00052396,-0.00068028,0.00080581,-0.019
 57027,-0.02172624,0.01415841,-0.00293471,-0.00315568,0.00187607,0.1279
 5293,0.00026112,0.00029921,0.00001924,0.00009346,0.00000664,0.00007041
 ,0.00004447,0.00000888,-0.00000081,-0.00007128,-0.00002714,-0.00003627
 ,-0.00089003,0.00131207,-0.00086616,-0.00038158,-0.00112513,0.00107632
 ,0.00035478,-0.00038233,0.00004615,-0.00440765,-0.01074595,0.00679803,
 -0.09947191,-0.18684596,0.08036820,0.00128064,0.00093323,0.00235987,0.
 00093512,0.00071525,-0.00016519,0.00834119,0.00778113,-0.00513343,-0.0
 1195669,-0.01765500,0.01052261,0.10438116,0.20346630,-0.00000556,0.000
 53342,0.00050134,-0.00015800,-0.00015814,-0.00027755,-0.00000351,-0.00
 004099,-0.00001633,0.00000354,-0.00011383,-0.00015926,0.00031170,-0.00
 119421,0.00045918,0.00008337,0.00084653,-0.00095514,-0.00027721,0.0002
 1132,0.00019963,0.01249031,0.02107558,-0.01157815,0.05612514,0.0817015
 4,-0.09977580,-0.00279056,0.00141360,-0.00327629,0.00014435,-0.0006559
 5,0.00086683,0.00727472,0.00741091,-0.00516129,-0.01146933,-0.01620867
 ,0.01028086,-0.06198819,-0.09375480,0.10798469,0.00027899,0.00037629,0
 .00019968,-0.00004696,-0.00004632,-0.00009613,-0.00006163,-0.00007378,
 0.00001682,-0.00004928,-0.00000788,-0.00005495,0.00008277,-0.00113579,
 0.00069776,0.00053414,0.00081691,-0.00136132,-0.00183851,0.00064529,0.
 00059714,-0.00336446,0.00139946,0.00157172,-0.02341079,0.01436383,-0.0
 2462439,0.00001302,0.00019081,-0.00034137,0.00001573,0.00002303,-0.000
 13664,-0.10589737,0.01858662,-0.04509206,0.00184351,-0.00094931,-0.000
 53666,0.00156034,-0.00013144,-0.00102385,0.54976203,-0.00006022,-0.000
 07192,-0.00009601,0.00000241,0.00001421,0.00000282,-0.00001620,0.00001
 803,0.00001619,0.00001337,-0.00001710,0.00001822,0.00000982,0.00027825
 ,-0.00018142,-0.00010949,-0.00026198,0.00033999,0.00050262,-0.00000805
 ,-0.00001070,0.00154966,-0.00061982,-0.00079698,0.00997450,-0.00591501
 ,0.01004877,0.00000752,0.00019849,-0.00001726,0.00008980,0.00009488,0.
 00029033,0.01892104,-0.09420356,0.03171148,-0.00014573,0.00014501,0.00
 082279,-0.00153027,0.00078889,-0.00028410,0.01617740,0.55848051,-0.000
 34080,-0.00045376,-0.00021444,0.00003170,0.00004810,0.00008680,0.00006
 361,0.00008476,-0.00002055,0.00006701,0.00000854,0.00005954,0.00007875
 ,0.00115226,-0.00072089,-0.00077192,-0.00077652,0.00157461,0.00223120,
 -0.00054948,-0.00121552,0.00012194,-0.00016082,-0.00024857,0.00420652,
 -0.00272357,0.00671111,-0.00022580,-0.00009261,0.00025040,-0.00001683,
 0.00020009,0.00030671,-0.04664200,0.03227064,-0.15059875,0.00103536,-0
 .00021938,0.00073801,0.00048138,-0.00068724,0.00052273,-0.04232525,0.0
 2892774,0.51055856,-0.00003088,0.00005937,0.00005545,0.00001055,-0.000
 00389,-0.00002480,0.00000297,-0.00000141,0.00000013,0.00000555,-0.0000
 1905,-0.00001879,-0.00000511,0.00022335,-0.00022912,-0.00020368,-0.000
 30072,0.00014934,0.00032107,-0.00011182,0.00009835,0.00171317,-0.00004
 347,0.00163482,0.00114059,0.02428491,0.02029303,-0.00011506,-0.0000051
 6,-0.00008131,-0.00018467,-0.00026737,-0.00053017,-0.05254793,-0.02866
 452,-0.02388607,-0.00527896,0.00263802,0.00176857,0.00146749,-0.000681
 77,-0.00036854,-0.00352416,-0.01306239,-0.01304129,0.06037235,-0.00002
 133,-0.00008892,-0.00007031,-0.00001513,0.00000854,0.00000466,-0.00000
 603,0.00000760,0.00000531,0.00001055,0.00000202,0.00001508,0.00002417,
 -0.00005973,0.00011491,-0.00006639,0.00017302,0.00008930,0.00019733,0.
 00002886,-0.00012924,-0.00108430,0.00029469,-0.00056139,-0.00014080,-0
 .00964576,-0.00751297,0.00003440,-0.00001723,0.00000209,0.00052213,0.0
 0000362,0.00049394,-0.02852226,-0.18462889,-0.12492667,0.00258158,0.00
 062527,-0.00027418,0.00014905,0.00093982,0.00035663,0.00258164,0.00980
 099,0.01030853,0.02651066,0.19909281,-0.00004500,-0.00014126,-0.000104
 14,0.00000457,0.00000994,0.00004684,0.00001035,0.00001066,-0.00000669,
 0.00000659,0.00001673,0.00002861,0.00002883,0.00013970,-0.00001855,-0.
 00012677,-0.00001502,0.00020827,0.00031286,0.00002095,-0.00020359,-0.0
 0068988,0.00109663,0.00054978,-0.00025018,-0.00774507,-0.00735681,0.00
 001144,0.00003923,0.00006018,0.00031804,-0.00022107,0.00047175,-0.0239
 4738,-0.12394667,-0.16378745,0.00175306,-0.00035031,0.00013975,-0.0002
 3576,0.00021189,-0.00005291,-0.00462495,-0.01886350,-0.01865218,0.0278
 8234,0.13675403,0.18023486,0.00007133,-0.00002444,-0.00006438,0.000031
 76,0.00002068,0.00006730,0.00002577,0.00000871,-0.00000327,-0.00002509
 ,0.00001959,0.00000997,-0.00018897,0.00050227,-0.00032334,-0.00012586,
 -0.00036921,0.00035846,0.00031937,-0.00004432,0.00005784,0.00142114,-0
 .00145935,0.00120854,-0.01945765,-0.02083354,0.01244220,-0.00023581,0.
 00063081,-0.00049536,-0.00008226,0.00004904,-0.00008169,-0.11546096,-0
 .09888721,0.05852652,0.00149596,0.00019753,-0.00026313,-0.00489903,0.0
 0282927,0.00163526,0.00928822,0.01495555,-0.00946502,-0.00271877,-0.00
 334418,0.00158032,0.13051845,0.00000700,-0.00000219,0.00000973,-0.0000
 1294,-0.00001468,-0.00000595,-0.00000032,-0.00000752,-0.00000515,-0.00
 000519,0.00000610,-0.00000127,0.00010723,-0.00021126,0.00013077,0.0002
 0437,0.00010181,-0.00029993,-0.00041678,0.00024490,0.00009372,0.000119
 33,0.00085586,-0.00079992,0.00781380,0.00887907,-0.00530620,-0.0003134
 7,0.00003155,-0.00005940,-0.00001363,-0.00007410,0.00004627,-0.0989071
 3,-0.18821617,0.08154363,-0.00066921,0.00086774,0.00022565,0.00300184,
 0.00039000,-0.00076618,-0.00562422,-0.00891456,0.00521731,-0.01253641,
 -0.01810503,0.01049373,0.10476363,0.20277422,-0.00004410,-0.00002407,-
 0.00002094,-0.00000504,-0.00000194,-0.00000903,-0.00000927,0.00000282,
 0.00000441,0.00000971,-0.00000742,0.00000577,0.00006415,-0.00001164,0.
 00001207,-0.00003534,0.00001924,0.00004475,0.00005332,-0.00009017,-0.0
 0012120,-0.00102789,-0.00028414,0.00020159,0.00622812,0.00693554,-0.00
 483777,0.00022897,-0.00012634,0.00037868,-0.00001294,-0.00008890,0.000
 04620,0.05764984,0.08090094,-0.09823554,-0.00028767,0.00033108,-0.0000
 7922,0.00170415,-0.00062892,0.00002984,0.01315015,0.02034411,-0.012662
 62,-0.01198424,-0.01620793,0.01012544,-0.06327073,-0.09195278,0.107087
 59,0.00016433,0.00017466,0.00006972,-0.00000667,-0.00001799,-0.0000171
 5,-0.00001002,-0.00002732,0.00000521,-0.00003951,0.00000363,-0.0000240
 4,-0.00010279,-0.00040531,0.00027527,0.00023791,0.00026066,-0.00050457
 ,-0.00065499,0.00019303,0.00024866,-0.00012183,0.00031606,0.00045057,-
 0.00078486,0.00102662,-0.00400417,-0.00006791,0.00007441,-0.00012368,-
 0.00006135,-0.00002841,-0.00005242,-0.01418435,0.00482451,0.00601838,0
 .00019987,-0.00002964,0.00007559,0.00057351,-0.00006747,-0.00012278,-0
 .25538322,0.08216946,0.07258597,0.00018886,-0.00066823,0.00000337,0.00
 079774,0.00022112,-0.00003685,0.27753137,-0.00009579,-0.00011529,-0.00
 004208,0.00000992,0.00001115,0.00002207,0.00001814,0.00002043,-0.00000
 706,0.00002061,0.00000402,0.00001485,0.00003102,0.00028571,-0.00018544
 ,-0.00015658,-0.00017681,0.00034781,0.00046034,-0.00014268,-0.00019242
 ,0.00039671,0.00045321,-0.00017685,0.00087841,-0.00059484,0.00252223,-
 0.00003952,-0.00003186,-0.00003987,0.00004030,-0.00004039,0.00011214,0
 .00980320,-0.00511282,-0.00430823,-0.00041432,0.00037270,0.00025720,0.
 00027907,0.00017558,-0.00016334,0.08204744,-0.08050539,-0.02889837,-0.
 00043042,0.00048081,0.00006917,-0.00024186,-0.00013110,-0.00041209,-0.
 09182837,0.08361764,0.00013385,0.00017592,0.00008331,-0.00001854,-0.00
 002087,-0.00003645,-0.00003091,-0.00003814,0.00000684,-0.00002385,-0.0
 0000285,-0.00002193,0.00000071,-0.00051216,0.00033194,0.00028656,0.000
 36992,-0.00064932,-0.00090192,0.00025111,0.00040227,-0.00049451,0.0002
 9339,0.00051034,-0.00271804,0.00185936,-0.00426266,0.00008009,0.000006
 13,-0.00006095,0.00005330,-0.00006782,-0.00001880,-0.02510861,0.009751
 94,0.00860561,0.00008733,0.00027900,0.00004545,0.00003043,-0.00022003,
 -0.00011264,0.07339460,-0.02925517,-0.07251413,0.00057059,-0.00069010,
 0.00113137,0.00082409,-0.00029883,0.00112016,-0.07782813,0.03028036,0.
 07764723,-0.00001329,-0.00003864,-0.00002922,-0.00000321,0.00000195,0.
 00001134,-0.00000094,-0.00000080,-0.00000194,0.00000510,0.00000443,0.0
 0000865,0.00001903,-0.00002079,0.00005084,0.00003471,0.00005970,-0.000
 00512,-0.00004054,0.00001311,-0.00001167,0.00004445,0.00020514,0.00004
 951,0.00101912,-0.00159664,-0.00042926,0.00002552,-0.00002283,0.000011
 57,0.00005924,0.00002637,0.00020176,-0.00408946,-0.01286251,-0.0121426
 6,-0.00014347,0.00058445,0.00023036,-0.00007992,-0.00002420,-0.0000115
 0,-0.05477033,-0.03015311,-0.02708994,-0.00125809,0.00163561,-0.002943
 63,0.00053484,0.00025107,0.00081874,0.00584799,0.02172269,0.01993048,0
 .05599265,0.00002677,0.00001176,-0.00000541,-0.00000406,-0.00000313,0.
 00001038,-0.00000048,-0.00001026,-0.00000401,-0.00000637,0.00000547,0.
 ,-0.00000839,-0.00007774,0.00007694,0.00006158,0.00006518,-0.00011676,
 -0.00016374,0.00003160,0.00006350,0.00003649,0.00015623,0.00019850,-0.
 00063861,0.00085966,0.00044791,-0.00000935,-0.00000666,-0.00000809,0.0
 0006500,-0.00011228,-0.00002546,0.00282753,0.00975493,0.00946779,-0.00
 038795,0.00007025,-0.00020554,0.00004278,-0.00007831,-0.00012301,-0.03
 079890,-0.18568014,-0.12864058,0.00203751,0.00029133,0.00255205,-0.000
 46500,0.00089630,-0.00063000,-0.00219721,-0.00832913,-0.00632101,0.032
 22551,0.19955401,0.00004470,0.00002438,-0.00000653,-0.00000642,-0.0000
 0278,0.00000112,-0.00000527,-0.00000667,0.00000316,-0.00001006,0.00000
 197,-0.00000184,-0.00002546,-0.00011681,0.00010593,0.00006027,0.000114
 53,-0.00013927,-0.00016300,0.00004325,0.00009617,0.00032811,0.00026600
 ,0.00018997,0.00126718,-0.00071139,0.00083304,0.00000511,0.00000509,-0
 .00004846,0.00015804,-0.00003798,0.00018809,-0.00482436,-0.01960364,-0
 .01951129,-0.00066488,0.00058523,0.00057461,-0.00006062,0.00009474,0.0
 0001831,-0.02757857,-0.12766420,-0.16629936,-0.00301309,0.00284174,-0.
 00347085,0.00082885,-0.00006677,0.00066016,-0.00170653,-0.00667153,-0.
 00703712,0.03345487,0.13986387,0.18310345,-0.00005119,-0.00004270,-0.0
 0000801,0.00000295,0.00000282,-0.00000347,0.00000003,0.00000657,0.0000
 0086,0.00001189,-0.00000059,0.00000518,0.00004088,0.00003799,-0.000030
 86,-0.00003101,-0.00002027,0.00007425,0.00009032,-0.00004237,-0.000058
 89,-0.00000360,0.00003800,-0.00009542,0.00195345,0.00047260,-0.0003709
 0,-0.00008186,-0.00008317,0.00008512,0.00003283,-0.00000715,0.00001659
 ,0.00852699,0.01484660,-0.00824189,-0.00008027,0.00001486,0.00007339,-
 0.00005715,-0.00043719,0.00015063,-0.11503204,-0.09929575,0.05901543,0
 .00064471,-0.00037846,0.00095179,-0.00131020,0.00200994,-0.00319309,-0
 .01412407,-0.02250099,0.01173250,-0.00318344,-0.00264311,0.00191112,0.
 12265078,-0.00002111,-0.00005031,0.00000077,0.00001085,0.00000297,0.00
 001981,0.00002679,0.00001366,-0.00000906,-0.00000024,0.00001012,0.0000
 0169,-0.00002074,0.00018364,-0.00013687,-0.00009383,-0.00011388,0.0001
 8295,0.00024141,-0.00007078,-0.00010384,0.00010267,0.00039052,-0.00008
 906,-0.00100591,0.00005050,-0.00034550,-0.00011333,0.00009275,-0.00016
 499,-0.00002384,-0.00000979,-0.00001042,-0.00557744,-0.00927624,0.0052
 8371,-0.00000704,-0.00008651,0.00005495,0.00083858,0.00004283,-0.00008
 632,-0.09844108,-0.19362174,0.08498436,0.00037459,0.00079618,-0.000131
 80,0.00169203,0.00062907,0.00193263,0.00600578,0.00975906,-0.00584015,
 -0.01201052,-0.01739909,0.01104096,0.10802237,0.20865703,0.00004084,0.
 00008441,0.00004942,-0.00000444,-0.00000464,-0.00003225,-0.00001439,-0
 .00000678,0.00000945,-0.00000511,-0.00001010,-0.00001406,-0.00002749,-
 0.00015686,0.00008538,0.00004424,0.00008705,-0.00015476,-0.00016331,0.
 00002347,0.00010640,0.00008041,-0.00041367,0.00004192,0.00126880,-0.00
 067140,0.00077488,0.00009432,-0.00012631,0.00012578,0.00000728,0.00001
 255,-0.00004252,0.01368316,0.02117531,-0.01324420,-0.00012932,-0.00004
 004,0.00002904,-0.00076569,-0.00007460,0.00050196,0.05816826,0.0846469
 1,-0.09766147,0.00072481,-0.00061341,0.00065632,-0.00357242,0.00180156
 ,-0.00375034,0.00468758,0.00747145,-0.00517052,-0.01210318,-0.01660106
 ,0.01074070,-0.06201434,-0.09658384,0.10694887\\0.00000029,-0.00000062
 ,-0.00000020,0.00000006,0.00000004,0.00000007,0.00000004,-0.00000027,-
 0.00000014,-0.00000003,-0.00000014,0.00000006,0.00000061,-0.00000082,0
 .00000002,0.00000037,0.00000020,0.00000008,-0.00000045,0.00000090,0.00
 000003,0.00000021,-0.00000066,0.00000021,-0.00000035,-0.00000042,0.000
 00058,-0.00000048,0.00000022,-0.00000018,0.00000007,0.00000055,-0.0000
 0006,0.00000003,0.00000030,0.00000008,0.00000023,0.00000037,0.00000002
 ,-0.00000085,-0.00000012,-0.00000003,0.00000005,0.,-0.00000006,-0.0000
 0003,0.00000019,-0.00000013,0.00000007,0.00000020,0.00000002,0.0000000
 9,0.00000014,-0.00000016,0.,-0.00000003,-0.00000003,0.00000008,-0.0000
 0003,-0.00000019\\\@


 Once you get people laughing, they're
 listening and you can tell them almost anything.
                                 -- Herb Gardner
 Job cpu time:       4 days  6 hours 29 minutes 42.0 seconds.
 Elapsed time:       0 days  2 hours 35 minutes 42.1 seconds.
 File lengths (MBytes):  RWF= 138775 Int=      0 D2E=      0 Chk=     25 Scr=      1
 Normal termination of Gaussian 16 at Mon Jun 24 16:15:28 2019.
