 Entering Gaussian System, Link 0=g16
 Initial command:
 /ichec/packages/gaussian/16b01/l1.exe "/localscratch/341085/Gau-60866.inp" -scrdir="/localscratch/341085/"
 Entering Link 1 = /ichec/packages/gaussian/16b01/l1.exe PID=     61269.
  
 Copyright (c) 1988-2017, Gaussian, Inc.  All Rights Reserved.
  
 This is part of the Gaussian(R) 16 program.  It is based on
 the Gaussian(R) 09 system (copyright 2009, Gaussian, Inc.),
 the Gaussian(R) 03 system (copyright 2003, Gaussian, Inc.),
 the Gaussian(R) 98 system (copyright 1998, Gaussian, Inc.),
 the Gaussian(R) 94 system (copyright 1995, Gaussian, Inc.),
 the Gaussian 92(TM) system (copyright 1992, Gaussian, Inc.),
 the Gaussian 90(TM) system (copyright 1990, Gaussian, Inc.),
 the Gaussian 88(TM) system (copyright 1988, Gaussian, Inc.),
 the Gaussian 86(TM) system (copyright 1986, Carnegie Mellon
 University), and the Gaussian 82(TM) system (copyright 1983,
 Carnegie Mellon University). Gaussian is a federally registered
 trademark of Gaussian, Inc.
  
 This software contains proprietary and confidential information,
 including trade secrets, belonging to Gaussian, Inc.
  
 This software is provided under written license and may be
 used, copied, transmitted, or stored only in accord with that
 written license.
  
 The following legend is applicable only to US Government
 contracts under FAR:
  
                    RESTRICTED RIGHTS LEGEND
  
 Use, reproduction and disclosure by the US Government is
 subject to restrictions as set forth in subparagraphs (a)
 and (c) of the Commercial Computer Software - Restricted
 Rights clause in FAR 52.227-19.
  
 Gaussian, Inc.
 340 Quinnipiac St., Bldg. 40, Wallingford CT 06492
  
  
 ---------------------------------------------------------------
 Warning -- This program may not be used in any manner that
 competes with the business of Gaussian, Inc. or will provide
 assistance to any competitor of Gaussian, Inc.  The licensee
 of this program is prohibited from giving any competitor of
 Gaussian, Inc. access to this program.  By using this program,
 the user acknowledges that Gaussian, Inc. is engaged in the
 business of creating and licensing software in the field of
 computational chemistry and represents and warrants to the
 licensee that it is not a competitor of Gaussian, Inc. and that
 it will not use this program in any manner prohibited above.
 ---------------------------------------------------------------
  

 Cite this work as:
 Gaussian 16, Revision B.01,
 M. J. Frisch, G. W. Trucks, H. B. Schlegel, G. E. Scuseria, 
 M. A. Robb, J. R. Cheeseman, G. Scalmani, V. Barone, 
 G. A. Petersson, H. Nakatsuji, X. Li, M. Caricato, A. V. Marenich, 
 J. Bloino, B. G. Janesko, R. Gomperts, B. Mennucci, H. P. Hratchian, 
 J. V. Ortiz, A. F. Izmaylov, J. L. Sonnenberg, D. Williams-Young, 
 F. Ding, F. Lipparini, F. Egidi, J. Goings, B. Peng, A. Petrone, 
 T. Henderson, D. Ranasinghe, V. G. Zakrzewski, J. Gao, N. Rega, 
 G. Zheng, W. Liang, M. Hada, M. Ehara, K. Toyota, R. Fukuda, 
 J. Hasegawa, M. Ishida, T. Nakajima, Y. Honda, O. Kitao, H. Nakai, 
 T. Vreven, K. Throssell, J. A. Montgomery, Jr., J. E. Peralta, 
 F. Ogliaro, M. J. Bearpark, J. J. Heyd, E. N. Brothers, K. N. Kudin, 
 V. N. Staroverov, T. A. Keith, R. Kobayashi, J. Normand, 
 K. Raghavachari, A. P. Rendell, J. C. Burant, S. S. Iyengar, 
 J. Tomasi, M. Cossi, J. M. Millam, M. Klene, C. Adamo, R. Cammi, 
 J. W. Ochterski, R. L. Martin, K. Morokuma, O. Farkas, 
 J. B. Foresman, and D. J. Fox, Gaussian, Inc., Wallingford CT, 2016.
 
 ******************************************
 Gaussian 16:  ES64L-G16RevB.01 20-Dec-2017
                 7-Jun-2019 
 ******************************************
 %mem=80GB
 %nproc=40
 Will use up to   40 processors via shared memory.
 ----------------------------------------------------------------------
 # opt=(calcfc,ts,noeigentest,maxcyc=500) freq=noraman uB2PLYPD3/cc-pvt
 z
 ----------------------------------------------------------------------
 1/5=1,6=500,10=4,11=1,18=20,38=1/1,3;
 2/9=110,12=2,17=6,18=5,40=1/2;
 3/5=16,6=1,11=2,25=1,30=1,71=2,74=-60,116=2,140=1/1,2,3;
 4//1;
 5/5=2,38=5/2;
 8/6=3,8=1,10=1,19=11,30=-1/1;
 9/15=3,16=-3/6;
 11/6=1,8=1,15=11,17=12,24=-1,27=1,28=-2,29=300,32=6,42=3/1,2,10;
 10/6=2,21=1/2;
 8/6=4,8=1,10=1,19=11,30=-1/11,4;
 10/5=1,20=4/2;
 11/12=2,14=11,16=1,17=2,28=-2,42=3,76=2/2,10,12;
 6/7=2,8=2,9=2,10=2/1;
 7/10=1,12=2,25=1,44=2/1,2,3,16;
 1/5=1,6=500,10=4,11=1,18=20/3(2);
 2/9=110/2;
 99//99;
 2/9=110/2;
 3/5=16,6=1,11=2,25=1,30=1,71=1,74=-60,116=2/1,2,3;
 4/5=5,16=3,69=1/1;
 5/5=2,38=5/2;
 8/6=4,10=1/1;
 9/15=2,16=-3/6;
 10/5=1/2;
 7/12=2/1,2,3,16;
 1/5=1,6=500,11=1,18=20/3(-8);
 2/9=110/2;
 6/7=2,8=2,9=2,10=2/1;
 99/9=10/99;
 -------------------
 Title Card Required
 -------------------
 Symbolic Z-matrix:
 Charge =  0 Multiplicity = 2
 C                     0.95085  -0.9643    0.42814 
 C                     1.4588    0.07627  -0.18068 
 H                     1.37002  -1.70189   1.10023 
 H                     0.8063    0.66753  -0.82153 
 C                    -1.99597   1.00232   0.48423 
 H                    -1.181     1.02154   1.21205 
 H                    -2.16556   2.00096   0.08542 
 H                    -2.904     0.62235   0.95165 
 O                    -1.64268   0.20188  -0.62607 
 O                    -1.49403  -1.10412  -0.18 
 H                    -0.43468  -1.15473   0.12113 
 C                     2.89246   0.52328  -0.07215 
 H                     3.46207  -0.12792   0.58719 
 H                     3.36113   0.52187  -1.05686 
 H                     2.94258   1.54274   0.31207 
 
 Add virtual bond connecting atoms H11        and C1         Dist= 2.71D+00.

 GradGradGradGradGradGradGradGradGradGradGradGradGradGradGradGradGradGrad
 Berny optimization.
 Initialization pass.
                           ----------------------------
                           !    Initial Parameters    !
                           ! (Angstroms and Degrees)  !
 --------------------------                            --------------------------
 ! Name  Definition              Value          Derivative Info.                !
 --------------------------------------------------------------------------------
 ! R1    R(1,2)                  1.3082         calculate D2E/DX2 analytically  !
 ! R2    R(1,3)                  1.0823         calculate D2E/DX2 analytically  !
 ! R3    R(1,11)                 1.4318         calculate D2E/DX2 analytically  !
 ! R4    R(2,4)                  1.089          calculate D2E/DX2 analytically  !
 ! R5    R(2,12)                 1.5057         calculate D2E/DX2 analytically  !
 ! R6    R(5,6)                  1.0928         calculate D2E/DX2 analytically  !
 ! R7    R(5,7)                  1.0886         calculate D2E/DX2 analytically  !
 ! R8    R(5,8)                  1.0897         calculate D2E/DX2 analytically  !
 ! R9    R(5,9)                  1.4136         calculate D2E/DX2 analytically  !
 ! R10   R(9,10)                 1.3881         calculate D2E/DX2 analytically  !
 ! R11   R(10,11)                1.1025         calculate D2E/DX2 analytically  !
 ! R12   R(12,13)                1.0878         calculate D2E/DX2 analytically  !
 ! R13   R(12,14)                1.0905         calculate D2E/DX2 analytically  !
 ! R14   R(12,15)                1.0906         calculate D2E/DX2 analytically  !
 ! A1    A(2,1,3)              132.8951         calculate D2E/DX2 analytically  !
 ! A2    A(2,1,11)             112.44           calculate D2E/DX2 analytically  !
 ! A3    A(3,1,11)             114.6622         calculate D2E/DX2 analytically  !
 ! A4    A(1,2,4)              118.2325         calculate D2E/DX2 analytically  !
 ! A5    A(1,2,12)             124.9115         calculate D2E/DX2 analytically  !
 ! A6    A(4,2,12)             116.8549         calculate D2E/DX2 analytically  !
 ! A7    A(6,5,7)              110.1231         calculate D2E/DX2 analytically  !
 ! A8    A(6,5,8)              109.9915         calculate D2E/DX2 analytically  !
 ! A9    A(6,5,9)              110.2841         calculate D2E/DX2 analytically  !
 ! A10   A(7,5,8)              110.3168         calculate D2E/DX2 analytically  !
 ! A11   A(7,5,9)              105.7017         calculate D2E/DX2 analytically  !
 ! A12   A(8,5,9)              110.3484         calculate D2E/DX2 analytically  !
 ! A13   A(5,9,10)             107.886          calculate D2E/DX2 analytically  !
 ! A14   A(9,10,11)            103.525          calculate D2E/DX2 analytically  !
 ! A15   A(2,12,13)            111.3809         calculate D2E/DX2 analytically  !
 ! A16   A(2,12,14)            110.1053         calculate D2E/DX2 analytically  !
 ! A17   A(2,12,15)            110.2838         calculate D2E/DX2 analytically  !
 ! A18   A(13,12,14)           108.753          calculate D2E/DX2 analytically  !
 ! A19   A(13,12,15)           108.7833         calculate D2E/DX2 analytically  !
 ! A20   A(14,12,15)           107.4316         calculate D2E/DX2 analytically  !
 ! A21   L(1,11,10,6,-1)       172.7163         calculate D2E/DX2 analytically  !
 ! A22   L(1,11,10,6,-2)       171.9232         calculate D2E/DX2 analytically  !
 ! D1    D(3,1,2,4)            179.7945         calculate D2E/DX2 analytically  !
 ! D2    D(3,1,2,12)             0.1872         calculate D2E/DX2 analytically  !
 ! D3    D(11,1,2,4)             0.4512         calculate D2E/DX2 analytically  !
 ! D4    D(11,1,2,12)         -179.156          calculate D2E/DX2 analytically  !
 ! D5    D(2,1,10,9)           -18.212          calculate D2E/DX2 analytically  !
 ! D6    D(3,1,10,9)           161.1037         calculate D2E/DX2 analytically  !
 ! D7    D(1,2,12,13)           -0.3605         calculate D2E/DX2 analytically  !
 ! D8    D(1,2,12,14)          120.3679         calculate D2E/DX2 analytically  !
 ! D9    D(1,2,12,15)         -121.2475         calculate D2E/DX2 analytically  !
 ! D10   D(4,2,12,13)         -179.9726         calculate D2E/DX2 analytically  !
 ! D11   D(4,2,12,14)          -59.2442         calculate D2E/DX2 analytically  !
 ! D12   D(4,2,12,15)           59.1404         calculate D2E/DX2 analytically  !
 ! D13   D(6,5,9,10)            64.5341         calculate D2E/DX2 analytically  !
 ! D14   D(7,5,9,10)          -176.4598         calculate D2E/DX2 analytically  !
 ! D15   D(8,5,9,10)           -57.1891         calculate D2E/DX2 analytically  !
 ! D16   D(5,9,10,11)          -88.7478         calculate D2E/DX2 analytically  !
 --------------------------------------------------------------------------------
 Trust Radius=3.00D-01 FncErr=1.00D-07 GrdErr=1.00D-07 EigMax=2.50D+02 EigMin=1.00D-04
 Number of steps in this run=    100 maximum allowed number of steps=    100.
 Search for a saddle point of order  1.
 GradGradGradGradGradGradGradGradGradGradGradGradGradGradGradGradGradGrad

                          Input orientation:                          
 ---------------------------------------------------------------------
 Center     Atomic      Atomic             Coordinates (Angstroms)
 Number     Number       Type             X           Y           Z
 ---------------------------------------------------------------------
      1          6           0        0.950846   -0.964302    0.428138
      2          6           0        1.458795    0.076274   -0.180675
      3          1           0        1.370021   -1.701886    1.100225
      4          1           0        0.806296    0.667527   -0.821528
      5          6           0       -1.995970    1.002325    0.484229
      6          1           0       -1.181004    1.021536    1.212049
      7          1           0       -2.165563    2.000963    0.085416
      8          1           0       -2.904001    0.622350    0.951647
      9          8           0       -1.642675    0.201884   -0.626068
     10          8           0       -1.494030   -1.104121   -0.180003
     11          1           0       -0.434677   -1.154734    0.121131
     12          6           0        2.892459    0.523279   -0.072153
     13          1           0        3.462067   -0.127923    0.587185
     14          1           0        3.361133    0.521866   -1.056855
     15          1           0        2.942584    1.542742    0.312074
 ---------------------------------------------------------------------
                    Distance matrix (angstroms):
                    1          2          3          4          5
     1  C    0.000000
     2  C    1.308229   0.000000
     3  H    1.082330   2.193271   0.000000
     4  H    2.060443   1.089049   3.102425   0.000000
     5  C    3.543232   3.638003   4.361434   3.109628   0.000000
     6  H    3.017094   3.130773   3.733264   2.865331   1.092822
     7  H    4.315352   4.112323   5.219318   3.381205   1.088619
     8  H    4.201354   4.540302   4.867383   4.112480   1.089670
     9  O    3.032770   3.135804   3.959895   2.500497   1.413606
    10  O    2.523253   3.180017   3.193602   2.973515   2.265008
    11  H    1.431849   2.278531   2.124838   2.397760   2.687449
    12  C    2.496608   1.505650   2.940008   2.221361   4.943256
    13  H    2.651614   2.155088   2.667813   3.109716   5.574785
    14  H    3.197403   2.141292   3.682743   2.569784   5.595028
    15  H    3.204023   2.143586   3.690765   2.571922   4.971016
                    6          7          8          9         10
     6  H    0.000000
     7  H    1.788277   0.000000
     8  H    1.787702   1.787798   0.000000
     9  O    2.064859   2.004073   2.063230   0.000000
    10  O    2.560119   3.187938   2.499870   1.388063   0.000000
    11  H    2.546224   3.599398   3.153624   1.964174   1.102485
    12  C    4.300062   5.271808   5.887014   4.580126   4.679888
    13  H    4.823880   6.037727   6.420480   5.257295   5.109250
    14  H    5.101824   5.834113   6.579976   5.032500   5.194739
    15  H    4.252715   5.133664   5.953044   4.868533   5.189563
                   11         12         13         14         15
    11  H    0.000000
    12  C    3.731343   0.000000
    13  H    4.056619   1.087770   0.000000
    14  H    4.313561   1.090548   1.770672   0.000000
    15  H    4.326515   1.090618   1.771065   1.758220   0.000000
 Stoichiometry    C4H9O2(2)
 Framework group  C1[X(C4H9O2)]
 Deg. of freedom    39
 Full point group                 C1      NOp   1
 Largest Abelian subgroup         C1      NOp   1
 Largest concise Abelian subgroup C1      NOp   1
                         Standard orientation:                         
 ---------------------------------------------------------------------
 Center     Atomic      Atomic             Coordinates (Angstroms)
 Number     Number       Type             X           Y           Z
 ---------------------------------------------------------------------
      1          6           0       -0.950846    0.964302    0.428138
      2          6           0       -1.458795   -0.076274   -0.180675
      3          1           0       -1.370021    1.701886    1.100225
      4          1           0       -0.806296   -0.667527   -0.821528
      5          6           0        1.995970   -1.002325    0.484229
      6          1           0        1.181004   -1.021536    1.212049
      7          1           0        2.165563   -2.000963    0.085416
      8          1           0        2.904001   -0.622350    0.951647
      9          8           0        1.642675   -0.201884   -0.626068
     10          8           0        1.494030    1.104121   -0.180003
     11          1           0        0.434677    1.154734    0.121131
     12          6           0       -2.892459   -0.523279   -0.072153
     13          1           0       -3.462067    0.127923    0.587185
     14          1           0       -3.361133   -0.521866   -1.056855
     15          1           0       -2.942584   -1.542742    0.312074
 ---------------------------------------------------------------------
 Rotational constants (GHZ):           6.5238558           1.5277449           1.3576547
 Standard basis: CC-pVTZ (5D, 7F)
 There are   345 symmetry adapted cartesian basis functions of A   symmetry.
 There are   306 symmetry adapted basis functions of A   symmetry.
   306 basis functions,   465 primitive gaussians,   345 cartesian basis functions
    25 alpha electrons       24 beta electrons
       nuclear repulsion energy       234.3733790590 Hartrees.
 NAtoms=   15 NActive=   15 NUniq=   15 SFac= 1.00D+00 NAtFMM=   60 NAOKFM=F Big=F
 Integral buffers will be    131072 words long.
 Raffenetti 2 integral format.
 Two-electron integral symmetry is turned on.
 Nuclear repulsion after empirical dispersion term =      234.3661600033 Hartrees.
 One-electron integrals computed using PRISM.
 NBasis=   306 RedAO= T EigKep=  4.32D-04  NBF=   306
 NBsUse=   306 1.00D-06 EigRej= -1.00D+00 NBFU=   306
 ExpMin= 1.03D-01 ExpMax= 1.53D+04 ExpMxC= 5.22D+02 IAcc=3 IRadAn=         5 AccDes= 0.00D+00
 Harris functional with IExCor=  419 and IRadAn=       5 diagonalized for initial guess.
 HarFok:  IExCor=  419 AccDes= 0.00D+00 IRadAn=         5 IDoV= 1 UseB2=F ITyADJ=14
 ICtDFT=  3500011 ScaDFX=  1.000000  1.000000  1.000000  1.000000
 FoFCou: FMM=F IPFlag=           0 FMFlag=      100000 FMFlg1=           0
         NFxFlg=           0 DoJE=T BraDBF=F KetDBF=T FulRan=T
         wScrn=  0.000000 ICntrl=       500 IOpCl=  0 I1Cent=   200000004 NGrid=           0
         NMat0=    1 NMatS0=      1 NMatT0=    0 NMatD0=    1 NMtDS0=    0 NMtDT0=    0
 Petite list used in FoFCou.
 Initial guess <Sx>= 0.0000 <Sy>= 0.0000 <Sz>= 0.5000 <S**2>= 0.7500 S= 0.5000
 Requested convergence on RMS density matrix=1.00D-08 within 128 cycles.
 Requested convergence on MAX density matrix=1.00D-06.
 Requested convergence on             energy=1.00D-06.
 No special actions if energy rises.
 Integral accuracy reduced to 1.0D-05 until final iterations.
 Initial convergence to 1.0D-05 achieved.  Increase integral accuracy.
 SCF Done:  E(UB2PLYPD3) =  -307.564491829     A.U. after   22 cycles
            NFock= 22  Conv=0.70D-08     -V/T= 2.0041
 <Sx>= 0.0000 <Sy>= 0.0000 <Sz>= 0.5000 <S**2>= 0.7784 S= 0.5141
 <L.S>=  0.00000000000    
 Annihilation of the first spin contaminant:
 S**2 before annihilation     0.7784,   after     0.7505
 DoSCS=T DFT=T ScalE2(SS,OS)=  0.270000  0.270000
 ExpMin= 1.03D-01 ExpMax= 1.53D+04 ExpMxC= 5.22D+02 IAcc=3 IRadAn=         5 AccDes= 0.00D+00
 HarFok:  IExCor=  205 AccDes= 0.00D+00 IRadAn=         5 IDoV=-2 UseB2=F ITyADJ=14
 ICtDFT= 12500011 ScaDFX=  1.000000  1.000000  1.000000  1.000000
 Range of M.O.s used for correlation:     7   306
 NBasis=   306 NAE=    25 NBE=    24 NFC=     6 NFV=     0
 NROrb=    300 NOA=    19 NOB=    18 NVA=   281 NVB=   282

 **** Warning!!: The largest alpha MO coefficient is  0.11760742D+02


 **** Warning!!: The largest beta MO coefficient is  0.11765097D+02

 DoSCS=T DFT=T ScalE2(SS,OS)=  0.270000  0.270000
 Disk-based method using ON**2 memory for 19 occupieds at a time.
 Permanent disk used for amplitudes=    70282596 words.
 Estimated scratch disk usage=  1323862488 words.
 Actual    scratch disk usage=  1279735256 words.
 JobTyp=2 Pass  1:  I=   7 to  25 NPSUse= 40 ParTrn=T ParDer=T DoDerP=T.
 (rs|ai) integrals will be sorted in core.
 Actual    scratch disk usage=  1279735256 words.
 JobTyp=3 Pass  1:  I=   7 to  24 NPSUse= 40 ParTrn=T ParDer=T DoDerP=T.
 (rs|ai) integrals will be sorted in core.
 Spin components of T(2) and E(2):
     alpha-alpha T2 =       0.6452451547D-01 E2=     -0.4670005067D-01
     alpha-beta  T2 =       0.3968014594D+00 E2=     -0.2894616246D+00
     beta-beta   T2 =       0.6953124623D-01 E2=     -0.4548503893D-01
 (S**2,0)=  0.77845D+00           (S**2,1)=  0.74990D+00
 Scaling Projection term by:   0.270000
 E(PUHF)=      -0.30757077401D+03        E(PMP2)=      -0.30794699345D+03
 E2(B2PLYPD3) =    -0.3816467142D+00 E(B2PLYPD3) =    -0.30794613854283D+03
 G2DrvN: will do    16 centers at a time, making    1 passes.
 Calling FoFCou, ICntrl=  3107 FMM=F I1Cent=   0 AccDes= 0.00D+00.
 End of G2Drv F.D. properties file   721 does not exist.
 End of G2Drv F.D. properties file   722 does not exist.
 End of G2Drv F.D. properties file   788 does not exist.
          IDoAtm=111111111111111
          Differentiating once with respect to electric field.
                with respect to dipole field.
          Differentiating once with respect to nuclear coordinates.
 Keep R1 and R2 ints in memory in canonical form, NReq=2252448329.
          There are    48 degrees of freedom in the 1st order CPHF.  IDoFFX=6 NUNeed=    48.
     45 vectors produced by pass  0 Test12= 2.87D-14 2.08D-09 XBig12= 7.34D+01 4.60D+00.
 AX will form    45 AO Fock derivatives at one time.
     45 vectors produced by pass  1 Test12= 2.87D-14 2.08D-09 XBig12= 5.85D+00 4.10D-01.
     45 vectors produced by pass  2 Test12= 2.87D-14 2.08D-09 XBig12= 3.76D-01 1.20D-01.
     45 vectors produced by pass  3 Test12= 2.87D-14 2.08D-09 XBig12= 6.42D-03 1.04D-02.
     45 vectors produced by pass  4 Test12= 2.87D-14 2.08D-09 XBig12= 7.73D-05 8.07D-04.
     45 vectors produced by pass  5 Test12= 2.87D-14 2.08D-09 XBig12= 6.36D-07 8.41D-05.
     45 vectors produced by pass  6 Test12= 2.87D-14 2.08D-09 XBig12= 5.53D-09 7.57D-06.
     25 vectors produced by pass  7 Test12= 2.87D-14 2.08D-09 XBig12= 3.36D-11 5.74D-07.
      3 vectors produced by pass  8 Test12= 2.87D-14 2.08D-09 XBig12= 2.44D-13 6.77D-08.
      2 vectors produced by pass  9 Test12= 2.87D-14 2.08D-09 XBig12= 1.91D-15 3.98D-09.
 InvSVY:  IOpt=1 It=  1 EMax= 7.99D-15
 Solved reduced A of dimension   345 with    48 vectors.
 End of Minotr F.D. properties file   721 does not exist.
 End of Minotr F.D. properties file   722 does not exist.
 End of Minotr F.D. properties file   788 does not exist.
 MDV= 10737418240.
 DoSCS=T DFT=T ScalE2(SS,OS)=  0.270000  0.270000
 Form MO integral derivatives with frozen-active canonical formalism.
 Discarding MO integrals.
 Reordered first order wavefunction length =    283226920
 In DefCFB: NBatch=  1 ICI= 25 ICA=282 LFMax= 71
            Large arrays: LIAPS=  5824508040 LIARS=  1191802500 words.
 In DefCFB: NBatch=  1 ICI= 25 ICA=282 LFMax= 71
            Large arrays: LIAPS=  5824508040 LIARS=  1191802500 words.
 Semi-Direct transformation.
 ModeAB=           4 MOrb=            25 LenV=   10734624903
 LASXX=    339668775 LTotXX=   339668775 LenRXX=   684905625
 LTotAB=   345236850 MaxLAS=   410154750 LenRXY=           0
 NonZer=  1024574400 LenScr=  1542889472 LnRSAI=   410154750
 LnScr1=   617645056 LExtra=           0 Total=   3255594903
 MaxDsk=          -1 SrtSym=           T ITran=            4
 JobTyp=1 Pass  1:  I=   1 to  25.
 (rs|ai) integrals will be sorted in core.
 ModeAB=           4 MOrb=            24 LenV=   10734624903
 LASXX=    326802342 LTotXX=   326802342 LenRXX=   606843570
 LTotAB=   280041228 MaxLAS=   393748560 LenRXY=           0
 NonZer=   933645912 LenScr=  1405961216 LnRSAI=   393748560
 LnScr1=   592940032 LExtra=           0 Total=   2999493378
 MaxDsk=          -1 SrtSym=           T ITran=            4
 JobTyp=2 Pass  1:  I=   1 to  24.
 (rs|ai) integrals will be sorted in core.
 SymMOI:  orbitals are not symmetric.
 DoSCS=T DFT=T ScalE2(SS,OS)=  0.270000  0.270000
 Spin components of T(2) and E(2):
     alpha-alpha T2 =       0.6452451547D-01 E2=     -0.4670005067D-01
     alpha-beta  T2 =       0.3968014594D+00 E2=     -0.2894616246D+00
     beta-beta   T2 =       0.6953124623D-01 E2=     -0.4548503893D-01
 E2(B2PLYPD3) =    -0.3816467142D+00 E(B2PLYPD3) =    -0.30794613854283D+03
 (S**2,0)=  0.77845D+00           (S**2,1)=  0.74990D+00
 Scaling Projection term by:   0.270000
 E(PUHF)=      -0.30757077401D+03        E(PMP2)=      -0.30794699345D+03
          IDoAtm=111111111111111
          Differentiating once with respect to electric field.
                with respect to dipole field.
          Differentiating once with respect to nuclear coordinates.
 Keep R1 and R2 ints in memory in canonical form, NReq=2252584249.
          There are     1 degrees of freedom in the 1st order CPHF.  IDoFFX=0 NUNeed=     1.
 LinEq1:  Iter=  0 NonCon=     1 RMS=9.97D-04 Max=7.26D-02 NDo=     1
 AX will form     1 AO Fock derivatives at one time.
 LinEq1:  Iter=  1 NonCon=     1 RMS=3.43D-04 Max=1.40D-02 NDo=     1
 LinEq1:  Iter=  2 NonCon=     1 RMS=2.14D-04 Max=1.05D-02 NDo=     1
 LinEq1:  Iter=  3 NonCon=     1 RMS=1.06D-04 Max=5.57D-03 NDo=     1
 LinEq1:  Iter=  4 NonCon=     1 RMS=7.79D-05 Max=4.73D-03 NDo=     1
 LinEq1:  Iter=  5 NonCon=     1 RMS=3.39D-05 Max=1.39D-03 NDo=     1
 LinEq1:  Iter=  6 NonCon=     1 RMS=2.33D-05 Max=8.84D-04 NDo=     1
 LinEq1:  Iter=  7 NonCon=     1 RMS=8.60D-06 Max=2.59D-04 NDo=     1
 LinEq1:  Iter=  8 NonCon=     1 RMS=6.25D-06 Max=2.15D-04 NDo=     1
 LinEq1:  Iter=  9 NonCon=     1 RMS=2.76D-06 Max=5.70D-05 NDo=     1
 LinEq1:  Iter= 10 NonCon=     1 RMS=1.01D-06 Max=2.18D-05 NDo=     1
 LinEq1:  Iter= 11 NonCon=     1 RMS=3.91D-07 Max=5.59D-06 NDo=     1
 LinEq1:  Iter= 12 NonCon=     1 RMS=1.74D-07 Max=2.62D-06 NDo=     1
 LinEq1:  Iter= 13 NonCon=     1 RMS=8.04D-08 Max=1.50D-06 NDo=     1
 LinEq1:  Iter= 14 NonCon=     1 RMS=2.45D-08 Max=4.78D-07 NDo=     1
 LinEq1:  Iter= 15 NonCon=     1 RMS=7.24D-09 Max=1.35D-07 NDo=     1
 LinEq1:  Iter= 16 NonCon=     1 RMS=2.52D-09 Max=6.30D-08 NDo=     1
 LinEq1:  Iter= 17 NonCon=     1 RMS=1.16D-09 Max=2.29D-08 NDo=     1
 LinEq1:  Iter= 18 NonCon=     1 RMS=3.68D-10 Max=1.23D-08 NDo=     1
 LinEq1:  Iter= 19 NonCon=     1 RMS=1.17D-10 Max=4.98D-09 NDo=     1
 LinEq1:  Iter= 20 NonCon=     1 RMS=4.26D-11 Max=2.14D-09 NDo=     1
 LinEq1:  Iter= 21 NonCon=     0 RMS=1.36D-11 Max=5.33D-10 NDo=     1
 Linear equations converged to 1.000D-10 1.000D-09 after    21 iterations.
 End of Minotr F.D. properties file   721 does not exist.
 End of Minotr F.D. properties file   722 does not exist.
 End of Minotr F.D. properties file   788 does not exist.
 Symmetrizing basis deriv contribution to polar:
 IMax=3 JMax=2 DiffMx= 0.00D+00
 G2DrvN: will do    16 centers at a time, making    1 passes.
 Calling FoFCou, ICntrl=  3107 FMM=F I1Cent=   0 AccDes= 0.00D+00.
 End of G2Drv F.D. properties file   721 does not exist.
 End of G2Drv F.D. properties file   722 does not exist.
 End of G2Drv F.D. properties file   788 does not exist.
 DoSCS=T DFT=T ScalE2(SS,OS)=  0.270000  0.270000
 R2 and R3 integrals will be kept in memory, NReq=  3583069605.
 DD1Dir will call FoFMem   1 times, MxPair=      1776
 NAB=   600 NAA=   300 NBB=   276.
 Discarding MO integrals.

 **********************************************************************

            Population analysis using the SCF Density.

 **********************************************************************

 Orbital symmetries:
 Alpha Orbitals:
       Occupied  (A) (A) (A) (A) (A) (A) (A) (A) (A) (A) (A) (A)
                 (A) (A) (A) (A) (A) (A) (A) (A) (A) (A) (A) (A)
                 (A)
       Virtual   (A) (A) (A) (A) (A) (A) (A) (A) (A) (A) (A) (A)
                 (A) (A) (A) (A) (A) (A) (A) (A) (A) (A) (A) (A)
                 (A) (A) (A) (A) (A) (A) (A) (A) (A) (A) (A) (A)
                 (A) (A) (A) (A) (A) (A) (A) (A) (A) (A) (A) (A)
                 (A) (A) (A) (A) (A) (A) (A) (A) (A) (A) (A) (A)
                 (A) (A) (A) (A) (A) (A) (A) (A) (A) (A) (A) (A)
                 (A) (A) (A) (A) (A) (A) (A) (A) (A) (A) (A) (A)
                 (A) (A) (A) (A) (A) (A) (A) (A) (A) (A) (A) (A)
                 (A) (A) (A) (A) (A) (A) (A) (A) (A) (A) (A) (A)
                 (A) (A) (A) (A) (A) (A) (A) (A) (A) (A) (A) (A)
                 (A) (A) (A) (A) (A) (A) (A) (A) (A) (A) (A) (A)
                 (A) (A) (A) (A) (A) (A) (A) (A) (A) (A) (A) (A)
                 (A) (A) (A) (A) (A) (A) (A) (A) (A) (A) (A) (A)
                 (A) (A) (A) (A) (A) (A) (A) (A) (A) (A) (A) (A)
                 (A) (A) (A) (A) (A) (A) (A) (A) (A) (A) (A) (A)
                 (A) (A) (A) (A) (A) (A) (A) (A) (A) (A) (A) (A)
                 (A) (A) (A) (A) (A) (A) (A) (A) (A) (A) (A) (A)
                 (A) (A) (A) (A) (A) (A) (A) (A) (A) (A) (A) (A)
                 (A) (A) (A) (A) (A) (A) (A) (A) (A) (A) (A) (A)
                 (A) (A) (A) (A) (A) (A) (A) (A) (A) (A) (A) (A)
                 (A) (A) (A) (A) (A) (A) (A) (A) (A) (A) (A) (A)
                 (A) (A) (A) (A) (A) (A) (A) (A) (A) (A) (A) (A)
                 (A) (A) (A) (A) (A) (A) (A) (A) (A) (A) (A) (A)
                 (A) (A) (A) (A) (A)
 Beta  Orbitals:
       Occupied  (A) (A) (A) (A) (A) (A) (A) (A) (A) (A) (A) (A)
                 (A) (A) (A) (A) (A) (A) (A) (A) (A) (A) (A) (A)
       Virtual   (A) (A) (A) (A) (A) (A) (A) (A) (A) (A) (A) (A)
                 (A) (A) (A) (A) (A) (A) (A) (A) (A) (A) (A) (A)
                 (A) (A) (A) (A) (A) (A) (A) (A) (A) (A) (A) (A)
                 (A) (A) (A) (A) (A) (A) (A) (A) (A) (A) (A) (A)
                 (A) (A) (A) (A) (A) (A) (A) (A) (A) (A) (A) (A)
                 (A) (A) (A) (A) (A) (A) (A) (A) (A) (A) (A) (A)
                 (A) (A) (A) (A) (A) (A) (A) (A) (A) (A) (A) (A)
                 (A) (A) (A) (A) (A) (A) (A) (A) (A) (A) (A) (A)
                 (A) (A) (A) (A) (A) (A) (A) (A) (A) (A) (A) (A)
                 (A) (A) (A) (A) (A) (A) (A) (A) (A) (A) (A) (A)
                 (A) (A) (A) (A) (A) (A) (A) (A) (A) (A) (A) (A)
                 (A) (A) (A) (A) (A) (A) (A) (A) (A) (A) (A) (A)
                 (A) (A) (A) (A) (A) (A) (A) (A) (A) (A) (A) (A)
                 (A) (A) (A) (A) (A) (A) (A) (A) (A) (A) (A) (A)
                 (A) (A) (A) (A) (A) (A) (A) (A) (A) (A) (A) (A)
                 (A) (A) (A) (A) (A) (A) (A) (A) (A) (A) (A) (A)
                 (A) (A) (A) (A) (A) (A) (A) (A) (A) (A) (A) (A)
                 (A) (A) (A) (A) (A) (A) (A) (A) (A) (A) (A) (A)
                 (A) (A) (A) (A) (A) (A) (A) (A) (A) (A) (A) (A)
                 (A) (A) (A) (A) (A) (A) (A) (A) (A) (A) (A) (A)
                 (A) (A) (A) (A) (A) (A) (A) (A) (A) (A) (A) (A)
                 (A) (A) (A) (A) (A) (A) (A) (A) (A) (A) (A) (A)
                 (A) (A) (A) (A) (A) (A) (A) (A) (A) (A) (A) (A)
                 (A) (A) (A) (A) (A) (A)
 The electronic state is 2-A.
 Alpha  occ. eigenvalues --  -19.78589 -19.78183 -10.65816 -10.64195 -10.63382
 Alpha  occ. eigenvalues --  -10.62517  -1.28740  -1.02306  -0.92566  -0.81108
 Alpha  occ. eigenvalues --   -0.77572  -0.65773  -0.62500  -0.56034  -0.54930
 Alpha  occ. eigenvalues --   -0.53104  -0.51449  -0.49330  -0.48470  -0.44713
 Alpha  occ. eigenvalues --   -0.43996  -0.37547  -0.36612  -0.32863  -0.30416
 Alpha virt. eigenvalues --    0.06078   0.07849   0.09919   0.10942   0.13573
 Alpha virt. eigenvalues --    0.14140   0.15028   0.15289   0.17047   0.17546
 Alpha virt. eigenvalues --    0.19807   0.22646   0.27311   0.29268   0.29967
 Alpha virt. eigenvalues --    0.31528   0.33081   0.35243   0.36153   0.37657
 Alpha virt. eigenvalues --    0.41915   0.44103   0.45408   0.46465   0.47540
 Alpha virt. eigenvalues --    0.49406   0.50608   0.51143   0.51620   0.52322
 Alpha virt. eigenvalues --    0.52670   0.53981   0.54066   0.55889   0.57349
 Alpha virt. eigenvalues --    0.59725   0.61578   0.63225   0.68226   0.68292
 Alpha virt. eigenvalues --    0.70038   0.70506   0.72941   0.74080   0.77157
 Alpha virt. eigenvalues --    0.77659   0.80373   0.85691   0.86464   0.89103
 Alpha virt. eigenvalues --    0.93083   0.93614   0.95103   0.97639   0.99050
 Alpha virt. eigenvalues --    1.00910   1.03393   1.05838   1.06193   1.06649
 Alpha virt. eigenvalues --    1.08634   1.09608   1.12355   1.13606   1.14956
 Alpha virt. eigenvalues --    1.16725   1.17319   1.18696   1.19783   1.20626
 Alpha virt. eigenvalues --    1.23681   1.28234   1.30038   1.31504   1.33504
 Alpha virt. eigenvalues --    1.35813   1.37959   1.39110   1.39473   1.40054
 Alpha virt. eigenvalues --    1.42485   1.45126   1.47987   1.48664   1.51268
 Alpha virt. eigenvalues --    1.52935   1.55946   1.57095   1.60249   1.62376
 Alpha virt. eigenvalues --    1.64469   1.75425   1.77473   1.81705   1.85219
 Alpha virt. eigenvalues --    1.91749   1.95878   2.02329   2.04122   2.12528
 Alpha virt. eigenvalues --    2.17558   2.18162   2.20706   2.28301   2.30428
 Alpha virt. eigenvalues --    2.35108   2.36650   2.38750   2.39075   2.42665
 Alpha virt. eigenvalues --    2.43893   2.46117   2.50343   2.52194   2.55863
 Alpha virt. eigenvalues --    2.60036   2.60378   2.65161   2.67084   2.73115
 Alpha virt. eigenvalues --    2.74605   2.78938   2.81757   2.84800   2.86810
 Alpha virt. eigenvalues --    2.91215   2.91635   2.91838   2.92571   2.93047
 Alpha virt. eigenvalues --    2.95519   2.96836   2.99858   3.03632   3.04260
 Alpha virt. eigenvalues --    3.04841   3.06392   3.07424   3.09028   3.10920
 Alpha virt. eigenvalues --    3.12362   3.13082   3.14507   3.15853   3.17225
 Alpha virt. eigenvalues --    3.18978   3.19322   3.22011   3.25015   3.26750
 Alpha virt. eigenvalues --    3.27095   3.32644   3.35954   3.36440   3.39452
 Alpha virt. eigenvalues --    3.41693   3.43651   3.44021   3.45296   3.50737
 Alpha virt. eigenvalues --    3.52283   3.52642   3.54475   3.55638   3.56228
 Alpha virt. eigenvalues --    3.56688   3.58995   3.59901   3.61216   3.63898
 Alpha virt. eigenvalues --    3.66173   3.67716   3.71142   3.75813   3.77833
 Alpha virt. eigenvalues --    3.80037   3.82969   3.84281   3.87097   3.87932
 Alpha virt. eigenvalues --    3.89590   3.90651   3.93478   3.96166   3.97202
 Alpha virt. eigenvalues --    4.01074   4.01393   4.02462   4.05152   4.06241
 Alpha virt. eigenvalues --    4.07159   4.12140   4.13092   4.15026   4.16818
 Alpha virt. eigenvalues --    4.16840   4.19771   4.20936   4.22033   4.23230
 Alpha virt. eigenvalues --    4.28486   4.28925   4.32089   4.34509   4.36894
 Alpha virt. eigenvalues --    4.38537   4.38764   4.44873   4.48899   4.49303
 Alpha virt. eigenvalues --    4.52894   4.53520   4.59965   4.67587   4.68150
 Alpha virt. eigenvalues --    4.69383   4.72972   4.78587   4.81977   4.85974
 Alpha virt. eigenvalues --    4.92926   4.93465   4.95256   4.98830   5.00232
 Alpha virt. eigenvalues --    5.01215   5.02752   5.06183   5.07549   5.15258
 Alpha virt. eigenvalues --    5.17307   5.17680   5.23853   5.30481   5.31627
 Alpha virt. eigenvalues --    5.32501   5.34503   5.35468   5.36461   5.38401
 Alpha virt. eigenvalues --    5.39861   5.41317   5.43072   5.43860   5.48564
 Alpha virt. eigenvalues --    5.49481   5.54421   5.67458   5.70774   5.76443
 Alpha virt. eigenvalues --    5.82754   5.90227   5.93857   5.98219   5.99062
 Alpha virt. eigenvalues --    6.03671   6.09686   6.11724   6.24475   6.32031
 Alpha virt. eigenvalues --    6.37640   6.42677   6.58348   6.69327   6.77503
 Alpha virt. eigenvalues --    6.79593   6.87261   6.98577   7.06817   7.07779
 Alpha virt. eigenvalues --    7.21098   7.42462   7.45269   7.63695   7.81487
 Alpha virt. eigenvalues --   10.04086  10.36594  11.06895  13.47326  13.71532
 Alpha virt. eigenvalues --   14.12209
  Beta  occ. eigenvalues --  -19.78436 -19.76840 -10.65824 -10.63630 -10.62605
  Beta  occ. eigenvalues --  -10.62342  -1.27102  -0.99901  -0.91394  -0.79158
  Beta  occ. eigenvalues --   -0.77129  -0.64026  -0.59208  -0.55015  -0.54638
  Beta  occ. eigenvalues --   -0.52153  -0.49639  -0.49420  -0.46022  -0.43771
  Beta  occ. eigenvalues --   -0.43475  -0.35684  -0.33750  -0.31844
  Beta virt. eigenvalues --   -0.05101   0.06814   0.07964   0.10112   0.11313
  Beta virt. eigenvalues --    0.13960   0.14342   0.15144   0.15449   0.17162
  Beta virt. eigenvalues --    0.17672   0.20477   0.22894   0.27865   0.29599
  Beta virt. eigenvalues --    0.30031   0.31642   0.33718   0.35704   0.36481
  Beta virt. eigenvalues --    0.38315   0.42517   0.44743   0.45589   0.47450
  Beta virt. eigenvalues --    0.48078   0.49528   0.51236   0.51745   0.51799
  Beta virt. eigenvalues --    0.52656   0.52716   0.54200   0.54234   0.56354
  Beta virt. eigenvalues --    0.59520   0.61246   0.61917   0.63419   0.68522
  Beta virt. eigenvalues --    0.69214   0.70678   0.71149   0.73155   0.74197
  Beta virt. eigenvalues --    0.77647   0.78373   0.80927   0.86133   0.86697
  Beta virt. eigenvalues --    0.89464   0.93316   0.94017   0.95280   0.97968
  Beta virt. eigenvalues --    0.99205   1.01457   1.03571   1.05975   1.06569
  Beta virt. eigenvalues --    1.06832   1.08760   1.09957   1.12954   1.13812
  Beta virt. eigenvalues --    1.15133   1.16912   1.17696   1.18924   1.20221
  Beta virt. eigenvalues --    1.20897   1.23902   1.28714   1.30725   1.31886
  Beta virt. eigenvalues --    1.33923   1.35965   1.38072   1.39250   1.39527
  Beta virt. eigenvalues --    1.40120   1.42870   1.45409   1.48210   1.48868
  Beta virt. eigenvalues --    1.51853   1.53503   1.56552   1.57479   1.60500
  Beta virt. eigenvalues --    1.62511   1.64935   1.76309   1.77959   1.82537
  Beta virt. eigenvalues --    1.86432   1.92983   1.97322   2.02812   2.04955
  Beta virt. eigenvalues --    2.12890   2.18655   2.19801   2.20908   2.28675
  Beta virt. eigenvalues --    2.31086   2.35117   2.36861   2.39092   2.39814
  Beta virt. eigenvalues --    2.42965   2.44578   2.46730   2.50435   2.52555
  Beta virt. eigenvalues --    2.56427   2.60451   2.60777   2.65769   2.68387
  Beta virt. eigenvalues --    2.73993   2.74965   2.79115   2.82228   2.85711
  Beta virt. eigenvalues --    2.86965   2.91520   2.92007   2.92367   2.93089
  Beta virt. eigenvalues --    2.93408   2.96191   2.97669   3.00493   3.04042
  Beta virt. eigenvalues --    3.04750   3.05110   3.06836   3.08044   3.09184
  Beta virt. eigenvalues --    3.11153   3.12505   3.14254   3.14769   3.16159
  Beta virt. eigenvalues --    3.17422   3.19233   3.20298   3.22166   3.26241
  Beta virt. eigenvalues --    3.27814   3.28215   3.33905   3.36868   3.37296
  Beta virt. eigenvalues --    3.40147   3.41537   3.43706   3.44162   3.45492
  Beta virt. eigenvalues --    3.50787   3.52660   3.52884   3.54728   3.55835
  Beta virt. eigenvalues --    3.56294   3.56936   3.59169   3.60094   3.61592
  Beta virt. eigenvalues --    3.64209   3.66309   3.68275   3.71735   3.76292
  Beta virt. eigenvalues --    3.77998   3.80614   3.83049   3.84545   3.87398
  Beta virt. eigenvalues --    3.88242   3.89853   3.90630   3.93581   3.96242
  Beta virt. eigenvalues --    3.97477   4.01208   4.01572   4.02713   4.04992
  Beta virt. eigenvalues --    4.06509   4.07390   4.12420   4.13446   4.15229
  Beta virt. eigenvalues --    4.16970   4.17140   4.19886   4.20949   4.22114
  Beta virt. eigenvalues --    4.23367   4.28786   4.29189   4.32735   4.35044
  Beta virt. eigenvalues --    4.37241   4.38824   4.39314   4.45231   4.49153
  Beta virt. eigenvalues --    4.49545   4.53279   4.54048   4.60886   4.68112
  Beta virt. eigenvalues --    4.68672   4.69961   4.73585   4.79274   4.82166
  Beta virt. eigenvalues --    4.86397   4.92976   4.93794   4.95397   4.98897
  Beta virt. eigenvalues --    5.00457   5.01465   5.02910   5.06396   5.07755
  Beta virt. eigenvalues --    5.16054   5.18250   5.18400   5.24712   5.30949
  Beta virt. eigenvalues --    5.31755   5.32607   5.34791   5.35740   5.36687
  Beta virt. eigenvalues --    5.38648   5.40316   5.41656   5.43574   5.43843
  Beta virt. eigenvalues --    5.48829   5.49591   5.54627   5.68487   5.71423
  Beta virt. eigenvalues --    5.77223   5.83762   5.90820   5.93924   5.98358
  Beta virt. eigenvalues --    5.99165   6.04231   6.10099   6.12614   6.25602
  Beta virt. eigenvalues --    6.32344   6.39442   6.43427   6.59674   6.70202
  Beta virt. eigenvalues --    6.79925   6.80926   6.88249   7.00068   7.07410
  Beta virt. eigenvalues --    7.09001   7.22841   7.43860   7.46030   7.65115
  Beta virt. eigenvalues --    7.82297  10.04693  10.37212  11.07793  13.47337
  Beta virt. eigenvalues --   13.71688  14.12784
          Condensed to atoms (all electrons):
               1          2          3          4          5          6
     1  C    5.275037   0.624094   0.392342  -0.054432  -0.005210   0.006083
     2  C    0.624094   4.923383  -0.051344   0.399234  -0.002184  -0.000685
     3  H    0.392342  -0.051344   0.508773   0.005119   0.000136  -0.000313
     4  H   -0.054432   0.399234   0.005119   0.507095  -0.002907  -0.002903
     5  C   -0.005210  -0.002184   0.000136  -0.002907   4.620755   0.396547
     6  H    0.006083  -0.000685  -0.000313  -0.002903   0.396547   0.671066
     7  H    0.000432  -0.000195  -0.000008  -0.000294   0.394811  -0.037532
     8  H   -0.000779   0.000509  -0.000008   0.000850   0.413146  -0.054757
     9  O   -0.005966  -0.000270   0.000165   0.019211   0.297611  -0.052444
    10  O   -0.071954  -0.000717   0.001066  -0.002197  -0.044246  -0.004187
    11  H    0.176135  -0.003983  -0.007674  -0.002739   0.003837   0.005360
    12  C   -0.059683   0.338197  -0.004618  -0.036168  -0.000174   0.000037
    13  H    0.000501  -0.040629   0.003184   0.004620  -0.000007   0.000021
    14  H    0.001048  -0.040242   0.000086  -0.002881  -0.000006   0.000025
    15  H   -0.000369  -0.040011   0.000023  -0.001378   0.000077  -0.000140
               7          8          9         10         11         12
     1  C    0.000432  -0.000779  -0.005966  -0.071954   0.176135  -0.059683
     2  C   -0.000195   0.000509  -0.000270  -0.000717  -0.003983   0.338197
     3  H   -0.000008  -0.000008   0.000165   0.001066  -0.007674  -0.004618
     4  H   -0.000294   0.000850   0.019211  -0.002197  -0.002739  -0.036168
     5  C    0.394811   0.413146   0.297611  -0.044246   0.003837  -0.000174
     6  H   -0.037532  -0.054757  -0.052444  -0.004187   0.005360   0.000037
     7  H    0.595031  -0.025357  -0.027095   0.007058  -0.000923  -0.000033
     8  H   -0.025357   0.598523  -0.036425   0.005290  -0.000007   0.000001
     9  O   -0.027095  -0.036425   7.956329   0.065068  -0.031780   0.000177
    10  O    0.007058   0.005290   0.065068   8.017394   0.246516   0.000023
    11  H   -0.000923  -0.000007  -0.031780   0.246516   0.392584   0.001564
    12  C   -0.000033   0.000001   0.000177   0.000023   0.001564   4.794796
    13  H    0.000000  -0.000001  -0.000018   0.000017  -0.000077   0.409862
    14  H   -0.000001  -0.000000  -0.000017   0.000016  -0.000113   0.409551
    15  H    0.000007  -0.000001   0.000011   0.000007  -0.000039   0.408272
              13         14         15
     1  C    0.000501   0.001048  -0.000369
     2  C   -0.040629  -0.040242  -0.040011
     3  H    0.003184   0.000086   0.000023
     4  H    0.004620  -0.002881  -0.001378
     5  C   -0.000007  -0.000006   0.000077
     6  H    0.000021   0.000025  -0.000140
     7  H    0.000000  -0.000001   0.000007
     8  H   -0.000001  -0.000000  -0.000001
     9  O   -0.000018  -0.000017   0.000011
    10  O    0.000017   0.000016   0.000007
    11  H   -0.000077  -0.000113  -0.000039
    12  C    0.409862   0.409551   0.408272
    13  H    0.577684  -0.027034  -0.027662
    14  H   -0.027034   0.588501  -0.036360
    15  H   -0.027662  -0.036360   0.595499
          Atomic-Atomic Spin Densities.
               1          2          3          4          5          6
     1  C    0.839821  -0.027490   0.003411  -0.004760   0.000513  -0.004851
     2  C   -0.027490  -0.163251  -0.001617   0.007949  -0.000079   0.000193
     3  H    0.003411  -0.001617   0.022889   0.001036  -0.000029   0.000444
     4  H   -0.004760   0.007949   0.001036   0.027112  -0.000377   0.001350
     5  C    0.000513  -0.000079  -0.000029  -0.000377  -0.005077   0.004773
     6  H   -0.004851   0.000193   0.000444   0.001350   0.004773  -0.000021
     7  H    0.000152  -0.000026  -0.000005  -0.000119   0.000318  -0.000695
     8  H    0.001222  -0.000116  -0.000062  -0.000208  -0.002242  -0.000660
     9  O    0.013342  -0.001283  -0.000466  -0.004639  -0.000510  -0.000631
    10  O   -0.084491   0.004780   0.003597   0.002939  -0.001312   0.003490
    11  H    0.043875   0.000551  -0.000641   0.000178   0.000964  -0.003401
    12  C   -0.019885   0.019459  -0.004745  -0.007253   0.000066  -0.000273
    13  H    0.001740  -0.000131   0.000743   0.000280  -0.000000   0.000011
    14  H    0.001284   0.002675   0.000258   0.000869  -0.000001   0.000008
    15  H    0.001366   0.002614   0.000255   0.000674  -0.000015   0.000070
               7          8          9         10         11         12
     1  C    0.000152   0.001222   0.013342  -0.084491   0.043875  -0.019885
     2  C   -0.000026  -0.000116  -0.001283   0.004780   0.000551   0.019459
     3  H   -0.000005  -0.000062  -0.000466   0.003597  -0.000641  -0.004745
     4  H   -0.000119  -0.000208  -0.004639   0.002939   0.000178  -0.007253
     5  C    0.000318  -0.002242  -0.000510  -0.001312   0.000964   0.000066
     6  H   -0.000695  -0.000660  -0.000631   0.003490  -0.003401  -0.000273
     7  H   -0.001130   0.000897   0.000138  -0.000203   0.000100   0.000009
     8  H    0.000897   0.002979  -0.000469  -0.000488   0.001294   0.000015
     9  O    0.000138  -0.000469   0.053002  -0.037904   0.008877   0.000284
    10  O   -0.000203  -0.000488  -0.037904   0.476862  -0.029709  -0.000503
    11  H    0.000100   0.001294   0.008877  -0.029709  -0.098385   0.000409
    12  C    0.000009   0.000015   0.000284  -0.000503   0.000409   0.082529
    13  H   -0.000000  -0.000000  -0.000007   0.000021  -0.000067  -0.002604
    14  H   -0.000000  -0.000001  -0.000016   0.000021  -0.000027  -0.004365
    15  H   -0.000003  -0.000002  -0.000026   0.000021  -0.000019  -0.004073
              13         14         15
     1  C    0.001740   0.001284   0.001366
     2  C   -0.000131   0.002675   0.002614
     3  H    0.000743   0.000258   0.000255
     4  H    0.000280   0.000869   0.000674
     5  C   -0.000000  -0.000001  -0.000015
     6  H    0.000011   0.000008   0.000070
     7  H   -0.000000  -0.000000  -0.000003
     8  H   -0.000000  -0.000001  -0.000002
     9  O   -0.000007  -0.000016  -0.000026
    10  O    0.000021   0.000021   0.000021
    11  H   -0.000067  -0.000027  -0.000019
    12  C   -0.002604  -0.004365  -0.004073
    13  H   -0.004630   0.001109   0.001090
    14  H    0.001109  -0.007647   0.003012
    15  H    0.001090   0.003012  -0.007542
 Mulliken charges and spin densities:
               1          2
     1  C   -0.277280   0.765248
     2  C   -0.105158  -0.155772
     3  H    0.153069   0.025068
     4  H    0.169771   0.025030
     5  C   -0.072188  -0.003007
     6  H    0.073820  -0.000193
     7  H    0.094098  -0.000567
     8  H    0.099017   0.002160
     9  O   -0.184556   0.029693
    10  O   -0.219154   0.337122
    11  H    0.221336  -0.076002
    12  C   -0.261804   0.059068
    13  H    0.099537  -0.002448
    14  H    0.107427  -0.002821
    15  H    0.102064  -0.002579
 Sum of Mulliken charges =  -0.00000   1.00000
 Mulliken charges and spin densities with hydrogens summed into heavy atoms:
               1          2
     1  C   -0.124211   0.790316
     2  C    0.064613  -0.130742
     5  C    0.194747  -0.001608
     9  O   -0.184556   0.029693
    10  O    0.002182   0.261120
    12  C    0.047225   0.051220
 APT charges:
               1
     1  C    0.222456
     2  C   -0.125242
     3  H    0.016501
     4  H    0.064365
     5  C    0.424888
     6  H   -0.035051
     7  H   -0.004742
     8  H   -0.031949
     9  O   -0.373719
    10  O    0.083856
    11  H   -0.303627
    12  C    0.119954
    13  H   -0.005804
    14  H   -0.025250
    15  H   -0.026636
 Sum of APT charges =  -0.00000
 APT charges with hydrogens summed into heavy atoms:
               1
     1  C    0.238957
     2  C   -0.060877
     5  C    0.353146
     9  O   -0.373719
    10  O   -0.219771
    12  C    0.062265
 Electronic spatial extent (au):  <R**2>=            900.6545
 Charge=             -0.0000 electrons
 Dipole moment (field-independent basis, Debye):
    X=             -2.0484    Y=             -1.6023    Z=              1.4946  Tot=              2.9995
 Quadrupole moment (field-independent basis, Debye-Ang):
   XX=            -35.7929   YY=            -36.6156   ZZ=            -38.9411
   XY=             -3.5009   XZ=              2.1649   YZ=              1.6320
 Traceless Quadrupole moment (field-independent basis, Debye-Ang):
   XX=              1.3237   YY=              0.5009   ZZ=             -1.8246
   XY=             -3.5009   XZ=              2.1649   YZ=              1.6320
 Octapole moment (field-independent basis, Debye-Ang**2):
  XXX=              7.6688  YYY=             -0.5489  ZZZ=             -2.9479  XYY=              3.0272
  XXY=             -7.2311  XXZ=              4.2489  XZZ=              2.0061  YZZ=              1.0487
  YYZ=              2.1107  XYZ=             -2.8593
 Hexadecapole moment (field-independent basis, Debye-Ang**3):
 XXXX=           -862.7198 YYYY=           -195.1105 ZZZZ=            -93.0673 XXXY=             -8.1030
 XXXZ=              6.0924 YYYX=             -4.8798 YYYZ=              6.4072 ZZZX=             -1.4877
 ZZZY=              1.8018 XXYY=           -179.3780 XXZZ=           -161.7975 YYZZ=            -47.7371
 XXYZ=              3.4319 YYXZ=             -6.2663 ZZXY=             -0.3276
 N-N= 2.343661600033D+02 E-N=-1.188990187713D+03  KE= 3.063023828594D+02
  Exact polarizability:  97.874  -0.541  63.132  -1.065   5.881  48.988
 Approx polarizability:  78.503   3.037  75.047  -1.778   9.381  59.765
                          Isotropic Fermi Contact Couplings
        Atom                 a.u.       MegaHertz       Gauss      10(-4) cm-1
     1  C(13)              0.19216     216.02413      77.08278      72.05789
     2  C(13)              0.00471       5.29789       1.89042       1.76719
     3  H(1)               0.01307      58.43381      20.85064      19.49142
     4  H(1)               0.01390      62.13601      22.17167      20.72634
     5  C(13)             -0.00345      -3.87317      -1.38204      -1.29195
     6  H(1)               0.00250      11.16444       3.98375       3.72406
     7  H(1)              -0.00005      -0.23024      -0.08215      -0.07680
     8  H(1)               0.00069       3.08638       1.10130       1.02951
     9  O(17)              0.01537      -9.31500      -3.32382      -3.10715
    10  O(17)              0.02380     -14.42497      -5.14719      -4.81165
    11  H(1)              -0.02645    -118.22168     -42.18444     -39.43451
    12  C(13)              0.04771      53.63318      19.13765      17.89010
    13  H(1)              -0.00075      -3.36112      -1.19933      -1.12115
    14  H(1)              -0.00024      -1.07779      -0.38458      -0.35951
    15  H(1)              -0.00010      -0.45184      -0.16123      -0.15072
 --------------------------------------------------------
       Center         ----  Spin Dipole Couplings  ----
                      3XX-RR        3YY-RR        3ZZ-RR
 --------------------------------------------------------
     1   Atom        0.663207     -0.342993     -0.320214
     2   Atom        0.022853      0.010716     -0.033569
     3   Atom       -0.005808      0.012129     -0.006321
     4   Atom       -0.005806      0.007452     -0.001646
     5   Atom       -0.002039      0.003726     -0.001687
     6   Atom       -0.001774      0.003525     -0.001751
     7   Atom       -0.001227      0.004522     -0.003295
     8   Atom        0.001222      0.000206     -0.001428
     9   Atom        0.365238     -0.216585     -0.148653
    10   Atom        1.383766     -0.727416     -0.656350
    11   Atom        0.217327     -0.118645     -0.098682
    12   Atom        0.053890     -0.014429     -0.039462
    13   Atom        0.009526     -0.004409     -0.005117
    14   Atom        0.002105     -0.003815      0.001710
    15   Atom       -0.000006      0.004662     -0.004656
 --------------------------------------------------------
                        XY            XZ            YZ
 --------------------------------------------------------
     1   Atom        0.159862     -0.193706     -0.049754
     2   Atom        0.040985      0.002467      0.039473
     3   Atom       -0.007485     -0.017019      0.042797
     4   Atom        0.001926      0.000432      0.013035
     5   Atom       -0.006075     -0.000590     -0.004242
     6   Atom       -0.003751      0.000753     -0.006491
     7   Atom       -0.003243      0.000285     -0.001358
     8   Atom       -0.004904      0.003615     -0.003386
     9   Atom       -0.012064     -0.157260     -0.023994
    10   Atom        0.336988     -0.508985     -0.075871
    11   Atom        0.001469     -0.091613      0.000190
    12   Atom        0.047718      0.006086      0.005797
    13   Atom        0.001223     -0.004616      0.002578
    14   Atom        0.003570      0.004960      0.000696
    15   Atom        0.004362      0.000475     -0.002654
 --------------------------------------------------------


 ---------------------------------------------------------------------------------
              Anisotropic Spin Dipole Couplings in Principal Axis System
 ---------------------------------------------------------------------------------

       Atom             a.u.   MegaHertz   Gauss  10(-4) cm-1        Axes

              Baa    -0.3827   -51.353   -18.324   -17.130 -0.0100  0.7971  0.6038
     1 C(13)  Bbb    -0.3432   -46.053   -16.433   -15.362  0.2419 -0.5839  0.7749
              Bcc     0.7259    97.406    34.757    32.491  0.9702  0.1538 -0.1870
 
              Baa    -0.0616    -8.265    -2.949    -2.757  0.2540 -0.5704  0.7811
     2 C(13)  Bbb    -0.0050    -0.670    -0.239    -0.223  0.7039 -0.4449 -0.5538
              Bcc     0.0666     8.935     3.188     2.980  0.6634  0.6905  0.2885
 
              Baa    -0.0430   -22.948    -8.189    -7.655  0.2423 -0.5741  0.7821
     3 H(1)   Bbb    -0.0085    -4.534    -1.618    -1.513  0.9288  0.3702 -0.0160
              Bcc     0.0515    27.483     9.807     9.167 -0.2803  0.7303  0.6230
 
              Baa    -0.0110    -5.878    -2.098    -1.961  0.1482 -0.5805  0.8006
     4 H(1)   Bbb    -0.0058    -3.115    -1.111    -1.039  0.9857  0.0211 -0.1671
              Bcc     0.0169     8.993     3.209     3.000  0.0801  0.8140  0.5754
 
              Baa    -0.0074    -0.994    -0.355    -0.332  0.6796  0.5540  0.4808
     5 C(13)  Bbb    -0.0012    -0.168    -0.060    -0.056 -0.5750 -0.0046  0.8181
              Bcc     0.0087     1.162     0.415     0.388 -0.4555  0.8325 -0.3154
 
              Baa    -0.0067    -3.552    -1.267    -1.185  0.3419  0.5915  0.7302
     6 H(1)   Bbb    -0.0024    -1.283    -0.458    -0.428  0.8859  0.0564 -0.4605
              Bcc     0.0091     4.834     1.725     1.613 -0.3135  0.8043 -0.5047
 
              Baa    -0.0036    -1.913    -0.682    -0.638  0.2293  0.2493  0.9409
     7 H(1)   Bbb    -0.0026    -1.382    -0.493    -0.461  0.8865  0.3456 -0.3076
              Bcc     0.0062     3.295     1.176     1.099 -0.4018  0.9047 -0.1418
 
              Baa    -0.0042    -2.264    -0.808    -0.755  0.5402  0.7982  0.2664
     8 H(1)   Bbb    -0.0040    -2.108    -0.752    -0.703 -0.5246  0.0720  0.8483
              Bcc     0.0082     4.372     1.560     1.458  0.6580 -0.5980  0.4576
 
              Baa    -0.2337    16.910     6.034     5.640  0.1538  0.8395  0.5212
     9 O(17)  Bbb    -0.1759    12.727     4.541     4.245  0.2231 -0.5434  0.8093
              Bcc     0.4096   -29.637   -10.575    -9.886  0.9626 -0.0082 -0.2708
 
              Baa    -0.7818    56.569    20.185    18.869 -0.2445  0.8404 -0.4836
    10 O(17)  Bbb    -0.7742    56.019    19.989    18.686  0.1181  0.5208  0.8454
              Bcc     1.5560  -112.587   -40.174   -37.555  0.9624  0.1496 -0.2266
 
              Baa    -0.1234   -65.834   -23.491   -21.960  0.2583 -0.1184  0.9588
    11 H(1)   Bbb    -0.1186   -63.270   -22.576   -21.105  0.0271  0.9930  0.1154
              Bcc     0.2420   129.104    46.067    43.064  0.9657  0.0038 -0.2597
 
              Baa    -0.0419    -5.624    -2.007    -1.876  0.2395 -0.5801  0.7785
    12 C(13)  Bbb    -0.0371    -4.972    -1.774    -1.659 -0.3954  0.6741  0.6239
              Bcc     0.0790    10.596     3.781     3.535  0.8867  0.4573  0.0680
 
              Baa    -0.0084    -4.497    -1.605    -1.500  0.2403 -0.5748  0.7823
    13 H(1)   Bbb    -0.0024    -1.305    -0.466    -0.435  0.1325  0.8177  0.5601
              Bcc     0.0109     5.802     2.070     1.935  0.9616  0.0310 -0.2726
 
              Baa    -0.0059    -3.153    -1.125    -1.052 -0.5258  0.8071  0.2686
    14 H(1)   Bbb    -0.0018    -0.960    -0.342    -0.320 -0.4397 -0.5282  0.7264
              Bcc     0.0077     4.113     1.467     1.372  0.7281  0.2638  0.6326
 
              Baa    -0.0059    -3.159    -1.127    -1.054 -0.3329  0.3562  0.8731
    15 H(1)   Bbb    -0.0017    -0.907    -0.324    -0.303  0.8107 -0.3647  0.4580
              Bcc     0.0076     4.066     1.451     1.356  0.4816  0.8603 -0.1674
 

 ---------------------------------------------------------------------------------

 Calling FoFJK, ICntrl=  10100127 FMM=F ISym2X=0 I1Cent= 0 IOpClX= 1 NMat=1 NMatS=1 NMatT=0.
 ***** Axes restored to original set *****
 -------------------------------------------------------------------
 Center     Atomic                   Forces (Hartrees/Bohr)
 Number     Number              X              Y              Z
 -------------------------------------------------------------------
      1        6          -0.003013001   -0.005265227    0.002282501
      2        6           0.001252930    0.003195573   -0.002210910
      3        1          -0.000185372    0.001001386   -0.000741339
      4        1           0.000855958   -0.000632186    0.000696050
      5        6          -0.001211125    0.002273178    0.004653412
      6        1          -0.001127628    0.000475702   -0.000233739
      7        1           0.000107500   -0.000508000   -0.000061038
      8        1           0.000447116    0.000597525    0.000101328
      9        8          -0.001421856    0.010855231   -0.009044436
     10        8          -0.002122438   -0.012646358    0.003298525
     11        1           0.005785903    0.000010050    0.001472771
     12        6           0.000094984    0.000308865   -0.000184742
     13        1           0.000065086    0.000438327   -0.000291447
     14        1           0.000174862    0.000079730    0.000320642
     15        1           0.000297081   -0.000183796   -0.000057577
 -------------------------------------------------------------------
 Cartesian Forces:  Max     0.012646358 RMS     0.003352846
 FormGI is forming the generalized inverse of G from B-inverse, IUseBI=4.

 GradGradGradGradGradGradGradGradGradGradGradGradGradGradGradGradGradGrad
 Berny optimization.
 Internal  Forces:  Max     0.014720205 RMS     0.002581530
 Search for a saddle point.
 Step number   1 out of a maximum of  100
 All quantities printed in internal units (Hartrees-Bohrs-Radians)
 Swapping is turned off.
 Second derivative matrix not updated -- analytic derivatives used.
 ITU=  0
     Eigenvalues ---   -0.05725   0.00216   0.00458   0.00719   0.01239
     Eigenvalues ---    0.01415   0.01816   0.02578   0.04671   0.04980
     Eigenvalues ---    0.05639   0.05719   0.05828   0.08467   0.08563
     Eigenvalues ---    0.08886   0.10942   0.12249   0.12813   0.13423
     Eigenvalues ---    0.14197   0.16512   0.16796   0.18566   0.21305
     Eigenvalues ---    0.23278   0.29816   0.30646   0.32954   0.33548
     Eigenvalues ---    0.33648   0.34082   0.34383   0.34533   0.34848
     Eigenvalues ---    0.35899   0.36515   0.44114   0.66735
 Eigenvectors required to have negative eigenvalues:
                          R3        R11       A1        R10       A2
   1                   -0.79537   0.54892  -0.14858  -0.13823   0.09652
                          A14       A3        D16       A13       A21
   1                    0.06312   0.05207   0.04823   0.03385  -0.02852
 RFO step:  Lambda0=7.265445330D-05 Lambda=-1.04771325D-03.
 Linear search not attempted -- option 19 set.
 Iteration  1 RMS(Cart)=  0.05126378 RMS(Int)=  0.00037734
 Iteration  2 RMS(Cart)=  0.00087291 RMS(Int)=  0.00000783
 Iteration  3 RMS(Cart)=  0.00000065 RMS(Int)=  0.00000783
 Variable       Old X    -DE/DX   Delta X   Delta X   Delta X     New X
                                 (Linear)    (Quad)   (Total)
    R1        2.47220   0.00442   0.00000   0.00539   0.00539   2.47759
    R2        2.04531  -0.00121   0.00000  -0.00395  -0.00395   2.04136
    R3        2.70580  -0.00062   0.00000   0.02309   0.02309   2.72889
    R4        2.05800  -0.00127   0.00000  -0.00375  -0.00375   2.05426
    R5        2.84527   0.00078   0.00000   0.00143   0.00143   2.84670
    R6        2.06513  -0.00101   0.00000  -0.00337  -0.00337   2.06177
    R7        2.05719  -0.00046   0.00000  -0.00062  -0.00062   2.05657
    R8        2.05918  -0.00054   0.00000  -0.00209  -0.00209   2.05709
    R9        2.67133   0.00554   0.00000   0.01278   0.01278   2.68411
   R10        2.62306   0.01472   0.00000   0.05033   0.05033   2.67339
   R11        2.08339   0.00553   0.00000  -0.00799  -0.00799   2.07541
   R12        2.05559  -0.00041   0.00000  -0.00108  -0.00108   2.05451
   R13        2.06084  -0.00021   0.00000  -0.00066  -0.00066   2.06017
   R14        2.06097  -0.00018   0.00000  -0.00060  -0.00060   2.06037
    A1        2.31946  -0.00073   0.00000   0.00899   0.00899   2.32844
    A2        1.96245   0.00079   0.00000  -0.00597  -0.00597   1.95647
    A3        2.00123  -0.00006   0.00000  -0.00297  -0.00297   1.99826
    A4        2.06355  -0.00033   0.00000  -0.00170  -0.00171   2.06184
    A5        2.18012   0.00089   0.00000   0.00358   0.00358   2.18370
    A6        2.03950  -0.00057   0.00000  -0.00186  -0.00187   2.03764
    A7        1.92201  -0.00030   0.00000  -0.00124  -0.00123   1.92078
    A8        1.91971  -0.00052   0.00000   0.00002  -0.00001   1.91971
    A9        1.92482   0.00114   0.00000   0.00759   0.00758   1.93240
   A10        1.92539  -0.00024   0.00000  -0.00179  -0.00179   1.92360
   A11        1.84484  -0.00078   0.00000  -0.00889  -0.00889   1.83596
   A12        1.92594   0.00070   0.00000   0.00408   0.00406   1.93001
   A13        1.88297   0.00112   0.00000  -0.00881  -0.00882   1.87415
   A14        1.80685   0.00475   0.00000  -0.00411  -0.00411   1.80274
   A15        1.94396   0.00034   0.00000   0.00335   0.00334   1.94731
   A16        1.92170   0.00030   0.00000   0.00117   0.00117   1.92287
   A17        1.92482   0.00029   0.00000   0.00051   0.00050   1.92532
   A18        1.89810  -0.00034   0.00000  -0.00195  -0.00196   1.89614
   A19        1.89863  -0.00035   0.00000  -0.00217  -0.00217   1.89646
   A20        1.87504  -0.00029   0.00000  -0.00113  -0.00113   1.87391
   A21        3.01447   0.00265   0.00000   0.02693   0.02693   3.04139
   A22        3.00063   0.00190   0.00000   0.03240   0.03240   3.03303
    D1        3.13801   0.00005   0.00000   0.00128   0.00129   3.13929
    D2        0.00327   0.00003   0.00000  -0.00089  -0.00089   0.00238
    D3        0.00788  -0.00013   0.00000  -0.00530  -0.00531   0.00257
    D4       -3.12686  -0.00015   0.00000  -0.00748  -0.00748  -3.13434
    D5       -0.31786  -0.00054   0.00000   0.01175   0.01173  -0.30613
    D6        2.81179   0.00003   0.00000   0.01054   0.01055   2.82234
    D7       -0.00629   0.00000   0.00000   0.00087   0.00087  -0.00542
    D8        2.10082   0.00000   0.00000   0.00140   0.00140   2.10221
    D9       -2.11617   0.00001   0.00000   0.00104   0.00104  -2.11513
   D10       -3.14111  -0.00001   0.00000  -0.00128  -0.00128   3.14079
   D11       -1.03401  -0.00001   0.00000  -0.00075  -0.00075  -1.03476
   D12        1.03219  -0.00000   0.00000  -0.00110  -0.00111   1.03109
   D13        1.12633   0.00029   0.00000   0.00580   0.00583   1.13216
   D14       -3.07980   0.00009   0.00000   0.00318   0.00317  -3.07663
   D15       -0.99814  -0.00029   0.00000  -0.00197  -0.00199  -1.00013
   D16       -1.54894  -0.00155   0.00000  -0.04103  -0.04103  -1.58997
         Item               Value     Threshold  Converged?
 Maximum Force            0.014720     0.000450     NO 
 RMS     Force            0.002582     0.000300     NO 
 Maximum Displacement     0.162033     0.001800     NO 
 RMS     Displacement     0.051781     0.001200     NO 
 Predicted change in Energy=-4.908220D-04
 GradGradGradGradGradGradGradGradGradGradGradGradGradGradGradGradGradGrad

                          Input orientation:                          
 ---------------------------------------------------------------------
 Center     Atomic      Atomic             Coordinates (Angstroms)
 Number     Number       Type             X           Y           Z
 ---------------------------------------------------------------------
      1          6           0        0.979113   -0.969020    0.424000
      2          6           0        1.495554    0.072771   -0.181725
      3          1           0        1.384754   -1.718190    1.088170
      4          1           0        0.845260    0.673409   -0.812648
      5          6           0       -2.059181    1.011686    0.490126
      6          1           0       -1.260274    1.061951    1.231469
      7          1           0       -2.251307    2.001624    0.080879
      8          1           0       -2.963489    0.610382    0.944166
      9          8           0       -1.664554    0.219729   -0.620967
     10          8           0       -1.485994   -1.103823   -0.154392
     11          1           0       -0.423536   -1.132817    0.122218
     12          6           0        2.933665    0.509537   -0.080035
     13          1           0        3.505923   -0.147413    0.570300
     14          1           0        3.396456    0.512196   -1.067126
     15          1           0        2.993891    1.525758    0.310380
 ---------------------------------------------------------------------
                    Distance matrix (angstroms):
                    1          2          3          4          5
     1  C    0.000000
     2  C    1.311084   0.000000
     3  H    1.080243   2.198284   0.000000
     4  H    2.060288   1.087066   3.102243   0.000000
     5  C    3.627505   3.737524   4.435152   3.201160   0.000000
     6  H    3.129169   3.251182   3.840038   2.960177   1.091040
     7  H    4.402053   4.222370   5.298358   3.485868   1.088289
     8  H    4.278925   4.630305   4.934593   4.194871   1.088564
     9  O    3.081243   3.193872   3.996870   2.557681   1.420371
    10  O    2.535638   3.205425   3.187884   3.004429   2.284584
    11  H    1.444066   2.286641   2.132051   2.397137   2.722055
    12  C    2.502090   1.506409   2.954081   2.219237   5.050321
    13  H    2.661055   2.157685   2.689775   3.108927   5.685096
    14  H    3.203280   2.142535   3.696873   2.568920   5.695480
    15  H    3.208763   2.144377   3.703712   2.569885   5.082333
                    6          7          8          9         10
     6  H    0.000000
     7  H    1.785775   0.000000
     8  H    1.785330   1.785503   0.000000
     9  O    2.074681   2.003001   2.071107   0.000000
    10  O    2.581112   3.207001   2.515616   1.414697   0.000000
    11  H    2.597609   3.628660   3.188370   1.980361   1.098258
    12  C    4.428806   5.397792   5.986283   4.638989   4.705512
    13  H    4.961486   6.164706   6.524364   5.318623   5.134115
    14  H    5.222155   5.952608   6.671120   5.089049   5.223305
    15  H    4.377378   5.271738   6.060526   4.926889   5.215369
                   11         12         13         14         15
    11  H    0.000000
    12  C    3.742864   0.000000
    13  H    4.075837   1.087197   0.000000
    14  H    4.325846   1.090197   1.768680   0.000000
    15  H    4.333847   1.090302   1.768966   1.756955   0.000000
 Stoichiometry    C4H9O2(2)
 Framework group  C1[X(C4H9O2)]
 Deg. of freedom    39
 Full point group                 C1      NOp   1
 Largest Abelian subgroup         C1      NOp   1
 Largest concise Abelian subgroup C1      NOp   1
                         Standard orientation:                         
 ---------------------------------------------------------------------
 Center     Atomic      Atomic             Coordinates (Angstroms)
 Number     Number       Type             X           Y           Z
 ---------------------------------------------------------------------
      1          6           0       -0.984411    0.963911    0.417106
      2          6           0       -1.493310   -0.088547   -0.176439
      3          1           0       -1.394174    1.714773    1.076821
      4          1           0       -0.840271   -0.688065   -0.805591
      5          6           0        2.074598   -0.984624    0.483988
      6          1           0        1.280318   -1.036495    1.230177
      7          1           0        2.274753   -1.976152    0.082512
      8          1           0        2.977159   -0.569944    0.929406
      9          8           0        1.665707   -0.206777   -0.631904
     10          8           0        1.475967    1.118988   -0.176150
     11          1           0        0.414792    1.139480    0.106089
     12          6           0       -2.926232   -0.539221   -0.062876
     13          1           0       -3.501718    0.117584    0.584752
     14          1           0       -3.394356   -0.555509   -1.047317
     15          1           0       -2.973770   -1.552471    0.336903
 ---------------------------------------------------------------------
 Rotational constants (GHZ):           6.5079662           1.4811786           1.3191543
 Standard basis: CC-pVTZ (5D, 7F)
 There are   345 symmetry adapted cartesian basis functions of A   symmetry.
 There are   306 symmetry adapted basis functions of A   symmetry.
   306 basis functions,   465 primitive gaussians,   345 cartesian basis functions
    25 alpha electrons       24 beta electrons
       nuclear repulsion energy       232.3446605955 Hartrees.
 NAtoms=   15 NActive=   15 NUniq=   15 SFac= 1.00D+00 NAtFMM=   60 NAOKFM=F Big=F
 Integral buffers will be    131072 words long.
 Raffenetti 2 integral format.
 Two-electron integral symmetry is turned on.
 Nuclear repulsion after empirical dispersion term =      232.3375465357 Hartrees.
 One-electron integrals computed using PRISM.
 NBasis=   306 RedAO= T EigKep=  4.40D-04  NBF=   306
 NBsUse=   306 1.00D-06 EigRej= -1.00D+00 NBFU=   306
 Initial guess from the checkpoint file:  "/localscratch/341085/Gau-61269.chk"
 B after Tr=     0.000000   -0.000000    0.000000
         Rot=    0.999981    0.003361   -0.001550   -0.004900 Ang=   0.70 deg.
 Initial guess <Sx>= 0.0000 <Sy>= 0.0000 <Sz>= 0.5000 <S**2>= 0.7786 S= 0.5142
 ExpMin= 1.03D-01 ExpMax= 1.53D+04 ExpMxC= 5.22D+02 IAcc=3 IRadAn=         5 AccDes= 0.00D+00
 Harris functional with IExCor=  419 and IRadAn=       5 diagonalized for initial guess.
 HarFok:  IExCor=  419 AccDes= 0.00D+00 IRadAn=         5 IDoV= 1 UseB2=F ITyADJ=14
 ICtDFT=  3500011 ScaDFX=  1.000000  1.000000  1.000000  1.000000
 FoFCou: FMM=F IPFlag=           0 FMFlag=      100000 FMFlg1=           0
         NFxFlg=           0 DoJE=T BraDBF=F KetDBF=T FulRan=T
         wScrn=  0.000000 ICntrl=       500 IOpCl=  0 I1Cent=   200000004 NGrid=           0
         NMat0=    1 NMatS0=      1 NMatT0=    0 NMatD0=    1 NMtDS0=    0 NMtDT0=    0
 Petite list used in FoFCou.
 Requested convergence on RMS density matrix=1.00D-08 within 128 cycles.
 Requested convergence on MAX density matrix=1.00D-06.
 Requested convergence on             energy=1.00D-06.
 No special actions if energy rises.
 Integral accuracy reduced to 1.0D-05 until final iterations.
 Initial convergence to 1.0D-05 achieved.  Increase integral accuracy.
 SCF Done:  E(UB2PLYPD3) =  -307.564606965     A.U. after   16 cycles
            NFock= 16  Conv=0.84D-08     -V/T= 2.0043
 <Sx>= 0.0000 <Sy>= 0.0000 <Sz>= 0.5000 <S**2>= 0.7791 S= 0.5145
 <L.S>=  0.00000000000    
 Annihilation of the first spin contaminant:
 S**2 before annihilation     0.7791,   after     0.7506
 DoSCS=T DFT=T ScalE2(SS,OS)=  0.270000  0.270000
 ExpMin= 1.03D-01 ExpMax= 1.53D+04 ExpMxC= 5.22D+02 IAcc=3 IRadAn=         5 AccDes= 0.00D+00
 HarFok:  IExCor=  205 AccDes= 0.00D+00 IRadAn=         5 IDoV=-2 UseB2=F ITyADJ=14
 ICtDFT= 12500011 ScaDFX=  1.000000  1.000000  1.000000  1.000000
 Range of M.O.s used for correlation:     7   306
 NBasis=   306 NAE=    25 NBE=    24 NFC=     6 NFV=     0
 NROrb=    300 NOA=    19 NOB=    18 NVA=   281 NVB=   282

 **** Warning!!: The largest alpha MO coefficient is  0.11812071D+02


 **** Warning!!: The largest beta MO coefficient is  0.11815906D+02

 DoSCS=T DFT=T ScalE2(SS,OS)=  0.270000  0.270000
 Disk-based method using ON**2 memory for 19 occupieds at a time.
 Estimated scratch disk usage=  1333842492 words.
 Actual    scratch disk usage=  1222254652 words.
 JobTyp=2 Pass  1:  I=   7 to  25 NPSUse= 40 ParTrn=T ParDer=T DoDerP=T.
 (rs|ai) integrals will be sorted in core.
 Actual    scratch disk usage=  1222254652 words.
 JobTyp=3 Pass  1:  I=   7 to  24 NPSUse= 40 ParTrn=T ParDer=T DoDerP=T.
 (rs|ai) integrals will be sorted in core.
 Spin components of T(2) and E(2):
     alpha-alpha T2 =       0.6507195593D-01 E2=     -0.4677753716D-01
     alpha-beta  T2 =       0.3997505911D+00 E2=     -0.2899694366D+00
     beta-beta   T2 =       0.6925585756D-01 E2=     -0.4530135524D-01
 (S**2,0)=  0.77911D+00           (S**2,1)=  0.75083D+00
 Scaling Projection term by:   0.270000
 E(PUHF)=      -0.30757077239D+03        E(PMP2)=      -0.30794752078D+03
 E2(B2PLYPD3) =    -0.3820483290D+00 E(B2PLYPD3) =    -0.30794665529368D+03
          IDoAtm=111111111111111
          Differentiating once with respect to electric field.
                with respect to dipole field.
          Differentiating once with respect to nuclear coordinates.
 Keep R1 and R2 ints in memory in canonical form, NReq=2252584249.
          There are     1 degrees of freedom in the 1st order CPHF.  IDoFFX=0 NUNeed=     1.
 LinEq1:  Iter=  0 NonCon=     1 RMS=9.94D-04 Max=7.18D-02 NDo=     1
 AX will form     1 AO Fock derivatives at one time.
 LinEq1:  Iter=  1 NonCon=     1 RMS=3.36D-04 Max=1.39D-02 NDo=     1
 LinEq1:  Iter=  2 NonCon=     1 RMS=2.08D-04 Max=1.05D-02 NDo=     1
 LinEq1:  Iter=  3 NonCon=     1 RMS=1.03D-04 Max=5.10D-03 NDo=     1
 LinEq1:  Iter=  4 NonCon=     1 RMS=7.58D-05 Max=4.38D-03 NDo=     1
 LinEq1:  Iter=  5 NonCon=     1 RMS=3.28D-05 Max=1.29D-03 NDo=     1
 LinEq1:  Iter=  6 NonCon=     1 RMS=2.30D-05 Max=8.33D-04 NDo=     1
 LinEq1:  Iter=  7 NonCon=     1 RMS=8.83D-06 Max=2.90D-04 NDo=     1
 LinEq1:  Iter=  8 NonCon=     1 RMS=6.31D-06 Max=2.19D-04 NDo=     1
 LinEq1:  Iter=  9 NonCon=     1 RMS=2.79D-06 Max=7.70D-05 NDo=     1
 LinEq1:  Iter= 10 NonCon=     1 RMS=1.05D-06 Max=2.44D-05 NDo=     1
 LinEq1:  Iter= 11 NonCon=     1 RMS=4.17D-07 Max=8.62D-06 NDo=     1
 LinEq1:  Iter= 12 NonCon=     1 RMS=1.89D-07 Max=3.41D-06 NDo=     1
 LinEq1:  Iter= 13 NonCon=     1 RMS=9.11D-08 Max=1.91D-06 NDo=     1
 LinEq1:  Iter= 14 NonCon=     1 RMS=2.63D-08 Max=5.02D-07 NDo=     1
 LinEq1:  Iter= 15 NonCon=     1 RMS=7.42D-09 Max=1.37D-07 NDo=     1
 LinEq1:  Iter= 16 NonCon=     1 RMS=2.61D-09 Max=5.89D-08 NDo=     1
 LinEq1:  Iter= 17 NonCon=     1 RMS=1.20D-09 Max=2.33D-08 NDo=     1
 LinEq1:  Iter= 18 NonCon=     1 RMS=3.80D-10 Max=1.26D-08 NDo=     1
 LinEq1:  Iter= 19 NonCon=     1 RMS=1.19D-10 Max=4.94D-09 NDo=     1
 LinEq1:  Iter= 20 NonCon=     1 RMS=4.14D-11 Max=2.23D-09 NDo=     1
 LinEq1:  Iter= 21 NonCon=     0 RMS=1.29D-11 Max=5.77D-10 NDo=     1
 Linear equations converged to 1.000D-10 1.000D-09 after    21 iterations.
 End of Minotr F.D. properties file   721 does not exist.
 End of Minotr F.D. properties file   722 does not exist.
 End of Minotr F.D. properties file   788 does not exist.
 Calling FoFJK, ICntrl=  10002127 FMM=F ISym2X=0 I1Cent= 0 IOpClX= 1 NMat=1 NMatS=1 NMatT=0.
 ***** Axes restored to original set *****
 -------------------------------------------------------------------
 Center     Atomic                   Forces (Hartrees/Bohr)
 Number     Number              X              Y              Z
 -------------------------------------------------------------------
      1        6          -0.000084076   -0.000138512   -0.000000487
      2        6           0.000118452   -0.000007342   -0.000000065
      3        1           0.000036746    0.000009784   -0.000000880
      4        1           0.000025905    0.000006080   -0.000009593
      5        6          -0.000130404    0.000115237    0.000117380
      6        1          -0.000022292   -0.000000795   -0.000025639
      7        1          -0.000003134   -0.000001496   -0.000006404
      8        1          -0.000005765   -0.000006826   -0.000007877
      9        8          -0.000110722    0.000927595   -0.000404608
     10        8          -0.000163808   -0.001011563    0.000296540
     11        1           0.000336797    0.000082096    0.000053380
     12        6          -0.000013859    0.000014473   -0.000009931
     13        1          -0.000000596    0.000001674   -0.000001512
     14        1           0.000007679    0.000005245    0.000000599
     15        1           0.000009077    0.000004352   -0.000000903
 -------------------------------------------------------------------
 Cartesian Forces:  Max     0.001011563 RMS     0.000230272

 GradGradGradGradGradGradGradGradGradGradGradGradGradGradGradGradGradGrad
 Berny optimization.
 FormGI is forming the generalized inverse of G from B-inverse, IUseBI=4.
 Internal  Forces:  Max     0.001112666 RMS     0.000198782
 Search for a saddle point.
 Step number   2 out of a maximum of  100
 All quantities printed in internal units (Hartrees-Bohrs-Radians)
 Swapping is turned off.
 Update second derivatives using D2CorX and points    1    2
 ITU=  0  0
     Eigenvalues ---   -0.05601   0.00217   0.00506   0.00726   0.01245
     Eigenvalues ---    0.01429   0.01829   0.02578   0.04627   0.04970
     Eigenvalues ---    0.05609   0.05640   0.05828   0.08468   0.08553
     Eigenvalues ---    0.08846   0.10942   0.12250   0.12811   0.13420
     Eigenvalues ---    0.14197   0.16513   0.16795   0.18566   0.21266
     Eigenvalues ---    0.23281   0.29417   0.30627   0.32908   0.33548
     Eigenvalues ---    0.33589   0.34081   0.34382   0.34489   0.34848
     Eigenvalues ---    0.35901   0.36416   0.43234   0.66726
 Eigenvectors required to have negative eigenvalues:
                          R3        R11       A1        R10       A2
   1                   -0.79775   0.54725  -0.14598  -0.14031   0.09339
                          A14       A3        D16       A13       A21
   1                    0.05940   0.05260   0.03936   0.03259  -0.02994
 RFO step:  Lambda0=5.245309873D-08 Lambda=-9.94879573D-06.
 Linear search not attempted -- option 19 set.
 Iteration  1 RMS(Cart)=  0.01002616 RMS(Int)=  0.00001437
 Iteration  2 RMS(Cart)=  0.00002747 RMS(Int)=  0.00000022
 Iteration  3 RMS(Cart)=  0.00000000 RMS(Int)=  0.00000022
 Variable       Old X    -DE/DX   Delta X   Delta X   Delta X     New X
                                 (Linear)    (Quad)   (Total)
    R1        2.47759   0.00009   0.00000   0.00010   0.00010   2.47769
    R2        2.04136   0.00001   0.00000   0.00002   0.00002   2.04138
    R3        2.72889   0.00008   0.00000   0.00013   0.00013   2.72902
    R4        2.05426  -0.00001   0.00000  -0.00002  -0.00002   2.05424
    R5        2.84670   0.00001   0.00000  -0.00000  -0.00000   2.84670
    R6        2.06177  -0.00004   0.00000  -0.00007  -0.00007   2.06169
[...]
 ! D10   D(4,2,12,13)          179.9629         -DE/DX =    0.0                 !
 ! D11   D(4,2,12,14)          -59.2774         -DE/DX =    0.0                 !
 ! D12   D(4,2,12,15)           59.088          -DE/DX =    0.0                 !
 ! D13   D(6,5,9,10)            64.8928         -DE/DX =    0.0                 !
 ! D14   D(7,5,9,10)          -176.2595         -DE/DX =    0.0                 !
 ! D15   D(8,5,9,10)           -57.3034         -DE/DX =    0.0                 !
 ! D16   D(5,9,10,11)          -91.7104         -DE/DX =    0.0                 !
 --------------------------------------------------------------------------------
 GradGradGradGradGradGradGradGradGradGradGradGradGradGradGradGradGradGrad


 ----------------------------------------------------------------------

 Electric dipole moment (input orientation):
 (Debye = 10**-18 statcoulomb cm , SI units = C m)
                  (au)            (Debye)         (10**-30 SI)
   Tot        0.111053D+01      0.282268D+01      0.941544D+01
   x          0.725106D+00      0.184304D+01      0.614771D+01
   y          0.637558D+00      0.162051D+01      0.540544D+01
   z          0.548644D+00      0.139451D+01      0.465160D+01

 Dipole polarizability, Alpha (input orientation).
 (esu units = cm**3 , SI units = C**2 m**2 J**-1)
 Alpha(0;0):
               (au)            (10**-24 esu)      (10**-40 SI)
   iso        0.698538D+02      0.103513D+02      0.115173D+02
   aniso      0.442071D+02      0.655082D+01      0.728877D+01
   xx         0.972876D+02      0.144165D+02      0.160406D+02
   yx        -0.395691D+00     -0.586354D-01     -0.652407D-01
   yy         0.633031D+02      0.938056D+01      0.104373D+02
   zx         0.523585D+00      0.775874D-01      0.863276D-01
   zy        -0.593095D+01     -0.878876D+00     -0.977882D+00
   zz         0.489706D+02      0.725669D+01      0.807416D+01

 ----------------------------------------------------------------------

 Dipole orientation:
     6          1.26579743         -2.34923900          0.56033402
     6          2.22099868         -0.40621507          1.76499351
     1          1.35062757         -4.36643104          0.86195707
     1          1.83493291          1.47365927          1.03228884
     6         -3.88774366          1.94174015         -1.00275938
     1         -3.76294767          0.83817237          0.73420635
     1         -4.11441931          3.93643971         -0.55612987
     1         -5.46958627          1.28441664         -2.14174222
     8         -1.59619548          1.78908456         -2.39238705
     8         -1.29853813         -0.75784036         -3.16342117
     1         -0.18649236         -1.59435068         -1.62280135
     6          3.83725905         -0.56233486          4.10315407
     1          4.12078539         -2.50862875          4.69690668
     1          5.67799139          0.29407882          3.75300783
     1          2.95945275          0.47750166          5.65019376

 Electric dipole moment (dipole orientation):
 (Debye = 10**-18 statcoulomb cm , SI units = C m)
                  (au)            (Debye)         (10**-30 SI)
   Tot        0.111053D+01      0.282268D+01      0.941544D+01
   x          0.000000D+00      0.000000D+00      0.000000D+00
   y          0.000000D+00      0.000000D+00      0.000000D+00
   z          0.111053D+01      0.282268D+01      0.941544D+01

 Dipole polarizability, Alpha (dipole orientation).
 (esu units = cm**3 , SI units = C**2 m**2 J**-1)
 Alpha(0;0):
               (au)            (10**-24 esu)      (10**-40 SI)
   iso        0.698538D+02      0.103513D+02      0.115173D+02
   aniso      0.442071D+02      0.655082D+01      0.728877D+01
   xx         0.722593D+02      0.107077D+02      0.119140D+02
   yx        -0.967664D+01     -0.143393D+01     -0.159546D+01
   yy         0.663318D+02      0.982936D+01      0.109366D+02
   zx         0.233038D+02      0.345326D+01      0.384227D+01
   zy        -0.223673D+01     -0.331450D+00     -0.368788D+00
   zz         0.709703D+02      0.105167D+02      0.117014D+02

 ----------------------------------------------------------------------
 1\1\GINC-N58\Freq\UB2PLYPD3-FC\CC-pVTZ\C4H9O2(2)\ROOT\07-Jun-2019\0\\#
 N Geom=AllCheck Guess=TCheck SCRF=Check GenChk UB2PLYPD3(FC)/CC-pVTZ F
 req\\Title Card Required\\0,2\C,0.9842095595,-0.9667430976,0.422836761
 4\C,1.5037001787,0.0737880271,-0.1825616371\H,1.3883312987,-1.71833688
 15,1.0852093336\H,0.8549430044,0.6777784064,-0.8118331385\C,-2.0745258
 973,1.0123832823,0.4912337847\H,-1.2806522274,1.0683567666,1.237483626
 3\H,-2.2707669698,2.0008544644,0.0803239447\H,-2.9790071127,0.60527505
 99,0.9397204755\O,-1.6677976032,0.2229990882,-0.6174625313\O,-1.483482
 1472,-1.1012096094,-0.1481212463\H,-0.4195547706,-1.1258200896,0.12454
 90955\C,2.9435394306,0.505145923,-0.0823078179\H,3.5143265916,-0.15483
 81219,0.5662447737\H,3.4049680072,0.507591788,-1.0700398603\H,3.008049
 6574,1.5205549941,0.3095364359\\Version=ES64L-G16RevB.01\State=2-A\HF=
 -307.5645847\MP2=-307.9466611\PUHF=-307.5707527\PMP2-0=-307.9475277\S2
 =0.779156\S2-1=0.750859\S2A=0.750573\RMSD=2.856e-09\RMSF=3.955e-06\Zer
 oPoint=0.1179368\Thermal=0.1265726\Dipole=0.7251064,0.6375577,0.548643
 7\DipoleDeriv=0.9727338,-0.2333682,0.2160484,0.2474204,-0.1847812,-0.0
 535922,0.1707144,-0.1114879,-0.1525317,-0.2084412,0.1480668,-0.0224503
 ,0.0744889,-0.0344663,-0.0940805,-0.067416,-0.0603392,-0.1055804,-0.16
 01668,0.1061323,-0.1051975,-0.1120287,0.114103,0.0535019,-0.0215481,0.
 0903576,0.1182109,0.0464351,0.0070369,-0.0580751,-0.0124349,0.0592369,
 0.0549495,-0.0352171,0.056542,0.0876848,0.4790447,-0.0682742,-0.031337
 3,-0.2254896,0.3840486,0.0825033,-0.2942265,0.1708174,0.4131117,-0.083
 535,-0.0136447,-0.1156035,0.044459,0.0187218,0.0111442,0.0056943,-0.06
 60491,-0.0466034,0.0532106,0.0354905,0.0101027,0.0808364,-0.0894665,0.
 029908,0.0188932,0.0471175,0.0172351,-0.1200428,-0.0051733,0.0763599,-
 0.0842655,0.018567,0.0347015,0.1030237,-0.0462119,0.0080086,-0.3623851
 ,-0.0234306,0.0206964,0.8299623,-0.348869,0.0088554,-0.1086451,-0.0684
 425,-0.3888285,0.3886289,-0.0570132,0.1228862,-0.7686395,-0.1077104,-0
 .1783347,0.4822808,-0.0943928,-0.1687917,-1.0162244,0.1772517,-0.15115
 98,0.0570947,0.1029564,0.0229476,-0.3266283,0.0719865,0.1109562,0.1467
 225,-0.0080776,-0.0066936,-0.1182909,0.089264,0.0098179,0.1061459,0.02
 19927,0.1152693,-0.0085288,0.0017054,-0.0237594,0.0805943,-0.012389,0.
 0799635,-0.0822557,0.059732,0.0025816,-0.0791473,-0.0437924,0.0541647,
 -0.0320615,0.0781097,-0.0059871,0.0739349,0.0007572,-0.0714967,-0.0483
 042,-0.0229094,0.0140183,-0.0616453,-0.0873248,-0.0562982,-0.0247505,-
 0.0723795,0.060774\Polar=97.2876342,-0.3956914,63.3031498,0.5235854,-5
 .9309515,48.9706026\PG=C01 [X(C4H9O2)]\NImag=1\\0.23432504,0.08856200,
 0.61237844,-0.01538200,-0.37118127,0.32893973,-0.13863847,-0.16730933,
 0.09255179,0.52559237,-0.14481641,-0.38891914,0.21064706,0.11934587,0.
 61108835,0.07750296,0.20451052,-0.16695860,0.02420431,-0.30752057,0.37
 159325,-0.07382200,0.09083293,-0.08024404,0.00891418,-0.01384357,0.012
 13525,0.07197203,0.07281852,-0.18536071,0.13695296,0.01508281,-0.00712
 374,0.01043497,-0.08147791,0.19051199,-0.06677623,0.14278057,-0.148244
 76,-0.00870751,0.00202797,-0.00275765,0.07520311,-0.15013318,0.1469171
 7,0.00968790,-0.00554512,0.00600081,-0.14484980,0.08722261,-0.09348617
 ,-0.00066754,-0.00359135,-0.00004360,0.15381079,0.01216235,-0.01619452
 ,0.01724835,0.08979088,-0.12999198,0.09018642,-0.00250377,0.00003245,0
 .00526384,-0.09121316,0.13822319,-0.00682554,0.01197562,-0.00804312,-0
 .09564770,0.08992241,-0.13560312,-0.00075002,0.00492493,0.00448410,0.1
 0453205,-0.11030088,0.13432406,-0.00300503,-0.00059788,0.00048129,0.00
 048675,0.00013860,0.00008682,0.00071200,0.00045776,0.00018056,-0.00042
 109,0.00022659,0.00072976,0.57270584,0.00664890,0.00190257,0.00041110,
 -0.00153579,0.00005300,-0.00069568,-0.00148037,-0.00038629,0.00022297,
 0.00094038,0.00042096,0.00028029,0.02381030,0.55499399,0.00824689,0.00
 214224,0.00032285,-0.00234692,-0.00046054,-0.00051604,-0.00178307,-0.0
 0014145,0.00073879,0.00087439,0.00033048,0.00058491,0.02830322,-0.0864
 9217,0.52043076,0.00025774,0.00022945,0.00001161,-0.00045786,-0.000191
 43,-0.00002747,-0.00003911,-0.00029937,-0.00026586,-0.00000697,-0.0001
 7612,-0.00013094,-0.20079063,-0.00621037,-0.12967148,0.20738326,-0.001
 08713,-0.00031783,0.00021407,0.00041743,0.00010432,-0.00002043,0.00029
 569,0.00008967,-0.00000739,-0.00010384,0.00007046,0.00005010,-0.005119
 34,-0.05157771,0.00212440,0.00621706,0.05074887,-0.00273004,-0.0006889
 1,0.00018497,0.00075585,0.00036016,0.00026335,0.00050864,0.00014558,-0
 .00014484,-0.00007178,-0.00010434,-0.00045611,-0.12506736,-0.00318324,
 -0.15728781,0.13836352,0.01185434,0.18434806,0.00034599,0.00012208,0.0
 0018062,-0.00017843,0.00008497,-0.00018836,-0.00009401,-0.00008462,-0.
 00001010,-0.00001618,0.00005866,0.00004136,-0.05892659,0.03990080,-0.0
 1718438,-0.00283483,0.02163480,-0.00864708,0.05679665,-0.00087944,-0.0
 0017755,-0.00005334,0.00043177,0.00001699,0.00013714,0.00021664,0.0000
 9312,-0.00004533,-0.00000841,-0.00006616,-0.00002172,0.04167668,-0.263
 57563,0.09260103,-0.00093275,0.00366113,-0.00020036,-0.04987179,0.2942
 4326,-0.00064818,-0.00008302,0.00010902,0.00032521,0.00013970,-0.00001
 148,0.00016587,0.00002003,-0.00006564,0.00002027,-0.00000530,0.0000002
 7,-0.02004057,0.10405386,-0.09634000,-0.00165894,0.01909018,-0.0060598
 4,0.01807372,-0.09899701,0.09765474,0.00069290,0.00015544,0.00015973,-
 0.00013011,0.00019045,-0.00012602,-0.00020773,-0.00011900,-0.00005030,
 0.00018816,-0.00003525,-0.00011506,-0.23462344,-0.08867660,0.08119234,
 -0.01866545,-0.01111067,0.00886288,0.00723832,0.00246282,-0.00405930,0
 .25020810,0.00008350,0.00001939,0.00008824,-0.00006489,-0.00011728,0.0
 0013114,0.00002606,0.00000314,0.00000846,-0.00014674,-0.00007524,-0.00
 009338,-0.09327255,-0.09461910,0.04695556,0.00071552,0.00114648,0.0013
 2350,-0.02423061,-0.00852920,0.00996697,0.09435809,0.09515822,-0.00140
 981,-0.00041457,-0.00009854,0.00032708,0.00014058,0.00017792,0.0002815
 6,0.00006361,-0.00007020,-0.00028884,-0.00012064,-0.00019696,0.0787988
 5,0.03968931,-0.08589511,-0.01816813,-0.00804398,0.01026801,0.00952993
 ,0.00476483,-0.00362948,-0.09745423,-0.03988626,0.10237374,-0.00077486
 ,-0.00009942,-0.00172835,0.00010717,0.00112032,-0.00002302,-0.00041119
 ,0.00006784,0.00069720,0.00025868,0.00072873,-0.00085023,-0.07532259,0
 .01360083,0.04534685,0.01402646,-0.00946994,-0.01475439,-0.00259034,0.
 00448151,0.00505105,-0.00514063,0.02229213,0.03049871,0.11514928,-0.03
 677303,-0.00885733,-0.00369119,0.00797961,-0.00064353,0.00351248,0.006
 53718,0.00271487,-0.00058174,-0.00038149,0.00104642,-0.00152434,0.0200
 5900,-0.08852657,-0.06828764,0.00284301,-0.00900815,-0.01343717,0.0109
 3716,-0.02348427,-0.02624469,0.00515273,0.00179649,0.00060934,-0.07794
 619,0.32781607,0.00790910,0.00278760,0.00033845,-0.00140925,0.00006606
 ,-0.00028139,-0.00145653,-0.00089804,-0.00000292,-0.00047599,-0.000610
 90,-0.00017093,0.03469466,-0.02926116,-0.19596648,0.00996027,-0.024188
 32,-0.03321073,-0.00361732,0.00687804,0.01006702,0.01272842,-0.0174665
 8,-0.02458140,-0.04769957,0.01745854,0.31908015,-0.12170183,-0.0170971
 5,-0.02237205,0.00936313,0.00414060,0.00011593,0.00430273,0.00342320,-
 0.00150214,-0.00020367,0.00009527,0.00032883,-0.00399307,0.02245612,-0
 .00533728,0.00178993,-0.00377333,-0.00024767,0.00023092,0.00229053,0.0
 0280937,0.00192296,0.00010368,-0.00366072,-0.04508934,0.00288110,0.004
 73181,0.18596994,0.03906935,0.01399482,0.00499444,-0.00938511,0.000204
 66,-0.00393778,-0.00734503,-0.00330896,-0.00077940,0.00027614,-0.00191
 753,0.00076784,0.01019748,-0.05766866,0.00899930,-0.00186777,0.0048856
 4,0.00452578,0.00177602,-0.00192375,-0.00732300,-0.00231836,0.00545368
 ,0.00325061,0.01359025,-0.18891986,0.03479049,0.01789661,0.26527992,-0
 .04621204,-0.00747160,-0.00296447,0.00635088,0.00058469,0.00064934,0.0
 0450383,0.00116192,-0.00117570,-0.00016398,-0.00019949,-0.00106535,-0.
 00076224,-0.02177425,0.01536420,0.00157520,-0.00119726,0.00133826,0.00
 199675,-0.00474715,-0.00139137,-0.00085938,-0.00129559,0.00128747,-0.0
 0417129,0.07266470,-0.06585336,0.01907367,-0.03903216,0.05691652,0.115
 26158,0.02398634,0.02041410,-0.02843470,-0.01052043,-0.00232957,-0.012
 44809,-0.00721302,0.00073574,0.00023520,0.00029131,-0.00015936,0.00296
 574,-0.00919002,-0.00737807,-0.00062256,0.00215404,0.00296660,0.000079
 85,0.00011128,-0.00002557,-0.00144639,0.00008679,0.00145738,0.00077230
 ,0.05816172,-0.01538913,-0.03219058,-0.06196998,0.01932839,-0.04659196
 ,-0.00502181,-0.02142803,-0.00031429,-0.00695060,-0.00082592,0.0010565
 3,0.00685427,0.00204880,0.00285377,-0.00076543,-0.00102461,-0.00002576
 ,0.00244598,-0.00043604,0.00330797,-0.00049146,0.00017826,-0.00089748,
 -0.00024801,-0.00038821,-0.00069893,-0.00006263,-0.00024192,-0.0002108
 1,0.03162732,-0.01727746,0.01108815,-0.03327854,-0.03331447,-0.0005159
 4,0.00701427,0.07298809,0.03411692,0.00615247,-0.01196393,-0.00271732,
 0.00045534,0.00206707,-0.00848916,-0.00065456,0.00133034,0.00091451,0.
 00071697,-0.00042522,0.00296797,-0.00337756,-0.00120526,-0.00037814,0.
 00021998,0.00082166,-0.00025566,-0.00024201,-0.00031414,-0.00038453,0.
 00027320,0.00034772,-0.01172540,0.02178776,-0.00998697,0.00727615,-0.0
 0911770,-0.00294404,-0.02234959,-0.01676286,0.02122862,-0.02093271,-0.
 01545802,0.00196756,-0.19051766,-0.02543138,-0.01752378,0.00188205,0.0
 0151291,0.00000077,-0.01555195,-0.00841875,-0.00074866,-0.00015430,0.0
 0029448,0.00046757,-0.00003025,-0.00001807,-0.00008493,0.00004730,-0.0
 0012046,-0.00005150,0.00004026,0.00005060,-0.00003876,-0.00078314,-0.0
 0114017,0.00017168,-0.00132787,0.00173331,-0.00164184,0.00505422,-0.00
 111110,0.00170398,0.47558677,-0.02881947,-0.00979666,0.00734082,-0.029
 99269,-0.07970187,0.00110015,0.00111320,0.00060138,-0.00150476,0.01557
 912,0.00875249,0.00403881,-0.00016228,-0.00032970,-0.00080517,0.000209
 08,0.00001257,0.00024642,-0.00003737,0.00008428,0.00007282,0.00003630,
 -0.00000633,0.00010197,0.00013500,0.00261460,-0.00057950,0.00060971,-0
 .00194787,0.00152778,-0.00179951,-0.00043883,0.00074211,-0.03380127,0.
 55145141,0.01130827,0.01089202,0.00706589,-0.01384183,0.00236898,-0.07
 195381,0.00042020,-0.00137275,-0.00086238,-0.01824327,-0.00279542,0.00
 505689,-0.00046364,0.00009779,-0.00033965,0.00042507,-0.00006875,-0.00
 004469,0.00011176,-0.00008377,-0.00000180,0.00011975,-0.00000591,0.000
 03107,-0.00075095,-0.00220928,0.00056611,-0.00130758,0.00291331,-0.000
 01083,0.00278373,0.00109959,0.00087345,0.00871199,-0.02364588,0.552214
 71,0.00175411,0.00194403,-0.00069009,-0.01848575,0.01891616,-0.0189448
 3,-0.00008607,-0.00064630,0.00041341,-0.00473656,-0.00247046,0.0000024
 8,0.00004816,-0.00004100,-0.00004753,0.00002912,-0.00001050,-0.0000400
 1,0.00001652,-0.00000493,-0.00000427,-0.00001510,-0.00000373,0.0000105
 8,-0.00024556,-0.00055800,0.00020942,-0.00018106,0.00055559,-0.0001627
 8,0.00041866,0.00007021,0.00001019,-0.11815484,0.08482165,-0.08239683,
 0.13140686,-0.00067959,0.00101211,-0.00128426,-0.00595872,0.00648527,-
 0.00721337,0.00038441,0.00010511,0.00011363,-0.00243189,0.00030791,0.0
 0025062,-0.00000813,0.00001234,0.00004729,0.00000577,-0.00001262,-0.00
 000546,-0.00000819,-0.00000684,-0.00001104,0.00001066,0.00001234,-0.00
 000137,-0.00009342,-0.00029659,0.00006234,-0.00023513,0.00029492,-0.00
 014465,0.00045584,0.00004814,0.00002067,0.08658533,-0.15109545,0.10034
 771,-0.09190789,0.15991928,0.00112624,-0.00055021,0.00022123,-0.000607
 54,-0.00002265,-0.00116099,-0.00033955,-0.00018464,0.00014271,-0.00005
 872,0.00025642,0.00142770,0.00004737,-0.00001884,-0.00002602,-0.000005
 63,-0.00000085,-0.00000233,-0.00000100,0.00000466,0.00000003,-0.000010
 86,-0.00000545,0.00000485,0.00000183,0.00004144,0.00000334,0.00010794,
 -0.00005589,0.00005970,-0.00019887,-0.00004927,-0.00005750,-0.08368295
 ,0.09982656,-0.14560739,0.09202880,-0.10997657,0.15324671,-0.00148329,
 -0.00021091,-0.00164646,-0.01703114,-0.00320149,0.02930468,-0.00000731
 ,-0.00000817,-0.00001158,0.00133941,-0.00023295,-0.00148576,0.00026037
 ,-0.00018694,-0.00009892,-0.00010059,0.00000971,0.00002644,-0.00005430
 ,0.00006648,0.00001428,-0.00006579,-0.00000526,0.00001849,0.00007191,0
 .00108187,-0.00022530,0.00062639,-0.00124591,0.00030807,-0.00148661,-0
 .00019033,-0.00042071,-0.09070988,0.00384052,0.10146783,0.00765944,-0.
 00122296,-0.01594572,0.10031473,-0.00050758,0.00009160,-0.00073813,-0.
 00797758,-0.00212168,0.00946865,0.00011300,0.00025142,0.00030857,0.000
 61999,-0.00009698,-0.00060204,0.00008605,-0.00008421,-0.00007569,-0.00
 005164,0.00001560,0.00001837,-0.00001091,0.00001867,0.00000663,-0.0000
 2600,-0.00000094,0.00001670,0.00000961,0.00044877,-0.00006776,0.000259
 22,-0.00056022,0.00015087,-0.00075613,-0.00005500,-0.00027200,0.003366
 90,-0.04407371,0.00159986,-0.00948561,0.00002094,0.01835302,0.00089342
 ,0.04596895,-0.00012479,-0.00105562,0.00110724,-0.00096249,0.00143771,
 0.00462527,0.00005927,-0.00040807,-0.00041949,0.00075809,0.00019785,0.
 00013558,-0.00001670,0.00003763,0.00003041,-0.00000899,-0.00001382,-0.
 00000316,-0.00000410,-0.00000377,-0.00000577,0.00000640,-0.00000044,-0
 .00000532,0.00006140,-0.00008554,0.00003903,0.00000648,-0.00000774,-0.
 00013869,-0.00000063,0.00012049,0.00016160,0.09778869,0.00023096,-0.26
 654770,0.00765930,-0.00137608,-0.01606283,-0.10959098,0.00064570,0.288
 14584,-0.00196708,0.00048555,0.00029548,-0.00573968,-0.03315486,-0.010
 70073,0.00000009,0.00007669,0.00013654,0.00093361,0.00169668,0.0010787
 7,0.00005788,-0.00033071,-0.00058362,0.00006175,-0.00003592,0.00015935
 ,-0.00006087,0.00008007,0.00002856,0.00000392,0.00000741,0.00009792,-0
 .00002816,0.00116550,-0.00013227,0.00048142,-0.00096259,0.00083676,-0.
 00156665,0.00010785,-0.00026921,-0.04444801,-0.01173199,-0.00834450,0.
 00057206,0.01510392,0.00753867,0.00066665,0.01346727,0.00436904,0.0510
 3306,-0.00076014,0.00165282,-0.00063457,-0.00387364,-0.00850746,-0.001
 15018,0.00027726,-0.00027226,-0.00052798,-0.00045080,0.00051313,0.0003
 5747,0.00006176,-0.00017896,-0.00024561,0.00000101,0.00000330,0.000042
 80,-0.00002300,0.00003416,0.00001279,-0.00001799,0.00000027,0.00004067
 ,-0.00004457,0.00057653,-0.00005897,0.00022809,-0.00055231,0.00028814,
 -0.00081250,0.00016722,0.00005820,-0.00804433,-0.27612631,-0.08913749,
 -0.00117922,-0.01680686,-0.00761775,0.00061293,0.00017680,0.00028074,0
 .01402513,0.29931993,-0.00010174,0.00020415,-0.00001598,0.00172543,-0.
 00014690,-0.00013311,-0.00021535,0.00008868,0.00013047,-0.00026776,-0.
 00006337,-0.00005270,0.00006001,0.00000994,0.00010447,-0.00002009,-0.0
 0001227,-0.00001478,-0.00002614,0.00000876,-0.00001155,-0.00000986,0.0
 0000653,-0.00001377,0.00004614,-0.00001268,-0.00003992,-0.00002274,0.0
 0001188,-0.00007168,0.00014486,-0.00005117,0.00006659,-0.00703983,-0.0
 8869309,-0.08043984,0.00195216,0.01917054,0.00781079,-0.00171435,-0.02
 881276,-0.01106201,0.00548925,0.09829175,0.08374303\\-0.00000267,-0.00
 000296,0.00000235,-0.00000114,0.00000199,-0.00000012,0.00000084,-0.000
 00009,-0.00000047,-0.00000087,0.00000019,-0.00000007,-0.00000029,0.000
 00092,0.00000069,0.00000157,-0.00000009,-0.00000021,0.00000002,-0.0000
 0020,-0.00000024,0.00000028,-0.00000004,0.00000001,0.00000190,0.000013
 88,-0.00000824,-0.00000491,-0.00001673,0.00000788,0.00000565,0.0000021
 1,-0.00000181,-0.00000062,0.00000086,0.00000027,-0.00000003,0.00000011
 ,0.,0.00000008,0.,0.00000002,0.00000019,0.00000006,-0.00000006\\\@


 STEINBACH'S GUIDELINES FOR SYSTEMS PROGRAMMING:
 NEVER TEST FOR AN ERROR CONDITION YOU DON'T KNOW HOW
 TO HANDLE.
 Job cpu time:       1 days 12 hours 26 minutes 28.1 seconds.
 Elapsed time:       0 days  0 hours 56 minutes 26.7 seconds.
 File lengths (MBytes):  RWF=  57000 Int=      0 D2E=      0 Chk=     16 Scr=      1
 Normal termination of Gaussian 16 at Fri Jun  7 11:24:49 2019.
