 Entering Gaussian System, Link 0=g16
 Initial command:
 /ichec/packages/gaussian/16b01/l1.exe "/localscratch/347858/Gau-14538.inp" -scrdir="/localscratch/347858/"
 Entering Link 1 = /ichec/packages/gaussian/16b01/l1.exe PID=     15338.
  
 Copyright (c) 1988-2017, Gaussian, Inc.  All Rights Reserved.
  
 This is part of the Gaussian(R) 16 program.  It is based on
 the Gaussian(R) 09 system (copyright 2009, Gaussian, Inc.),
 the Gaussian(R) 03 system (copyright 2003, Gaussian, Inc.),
 the Gaussian(R) 98 system (copyright 1998, Gaussian, Inc.),
 the Gaussian(R) 94 system (copyright 1995, Gaussian, Inc.),
 the Gaussian 92(TM) system (copyright 1992, Gaussian, Inc.),
 the Gaussian 90(TM) system (copyright 1990, Gaussian, Inc.),
 the Gaussian 88(TM) system (copyright 1988, Gaussian, Inc.),
 the Gaussian 86(TM) system (copyright 1986, Carnegie Mellon
 University), and the Gaussian 82(TM) system (copyright 1983,
 Carnegie Mellon University). Gaussian is a federally registered
 trademark of Gaussian, Inc.
  
 This software contains proprietary and confidential information,
 including trade secrets, belonging to Gaussian, Inc.
  
 This software is provided under written license and may be
 used, copied, transmitted, or stored only in accord with that
 written license.
  
 The following legend is applicable only to US Government
 contracts under FAR:
  
                    RESTRICTED RIGHTS LEGEND
  
 Use, reproduction and disclosure by the US Government is
 subject to restrictions as set forth in subparagraphs (a)
 and (c) of the Commercial Computer Software - Restricted
 Rights clause in FAR 52.227-19.
  
 Gaussian, Inc.
 340 Quinnipiac St., Bldg. 40, Wallingford CT 06492
  
  
 ---------------------------------------------------------------
 Warning -- This program may not be used in any manner that
 competes with the business of Gaussian, Inc. or will provide
 assistance to any competitor of Gaussian, Inc.  The licensee
 of this program is prohibited from giving any competitor of
 Gaussian, Inc. access to this program.  By using this program,
 the user acknowledges that Gaussian, Inc. is engaged in the
 business of creating and licensing software in the field of
 computational chemistry and represents and warrants to the
 licensee that it is not a competitor of Gaussian, Inc. and that
 it will not use this program in any manner prohibited above.
 ---------------------------------------------------------------
  

 Cite this work as:
 Gaussian 16, Revision B.01,
 M. J. Frisch, G. W. Trucks, H. B. Schlegel, G. E. Scuseria, 
 M. A. Robb, J. R. Cheeseman, G. Scalmani, V. Barone, 
 G. A. Petersson, H. Nakatsuji, X. Li, M. Caricato, A. V. Marenich, 
 J. Bloino, B. G. Janesko, R. Gomperts, B. Mennucci, H. P. Hratchian, 
 J. V. Ortiz, A. F. Izmaylov, J. L. Sonnenberg, D. Williams-Young, 
 F. Ding, F. Lipparini, F. Egidi, J. Goings, B. Peng, A. Petrone, 
 T. Henderson, D. Ranasinghe, V. G. Zakrzewski, J. Gao, N. Rega, 
 G. Zheng, W. Liang, M. Hada, M. Ehara, K. Toyota, R. Fukuda, 
 J. Hasegawa, M. Ishida, T. Nakajima, Y. Honda, O. Kitao, H. Nakai, 
 T. Vreven, K. Throssell, J. A. Montgomery, Jr., J. E. Peralta, 
 F. Ogliaro, M. J. Bearpark, J. J. Heyd, E. N. Brothers, K. N. Kudin, 
 V. N. Staroverov, T. A. Keith, R. Kobayashi, J. Normand, 
 K. Raghavachari, A. P. Rendell, J. C. Burant, S. S. Iyengar, 
 J. Tomasi, M. Cossi, J. M. Millam, M. Klene, C. Adamo, R. Cammi, 
 J. W. Ochterski, R. L. Martin, K. Morokuma, O. Farkas, 
 J. B. Foresman, and D. J. Fox, Gaussian, Inc., Wallingford CT, 2016.
 
 ******************************************
 Gaussian 16:  ES64L-G16RevB.01 20-Dec-2017
                14-Jun-2019 
 ******************************************
 %mem=80GB
 %nproc=40
 Will use up to   40 processors via shared memory.
 ----------------------------------------------------------------------
 # opt=(calcfc,ts,noeigentest,maxcyc=500,modredundant) uB2PLYPD3/cc-pvt
 z scf=maxcyc=500 nosymm
 ----------------------------------------------------------------------
 1/5=1,6=500,10=4,11=1,18=120,38=1/1,3;
 2/9=110,12=2,15=1,17=6,18=5,40=1/2;
 3/5=16,6=1,11=2,25=1,30=1,71=2,74=-60,116=2,140=1/1,2,3;
 4//1;
 5/5=2,7=500,38=5/2;
 8/6=3,8=1,10=1,19=11,30=-1/1;
 9/15=3,16=-3/6;
 11/6=1,8=1,15=11,17=12,24=-1,27=1,28=-2,29=300,31=1,32=6,42=3/1,2,10;
 10/6=2,21=1,31=1/2;
 8/6=4,8=1,10=1,19=11,30=-1/11,4;
 10/5=1,20=4,31=1/2;
 11/12=2,14=11,16=1,17=2,28=-2,31=1,42=3,76=2/2,10,12;
 6/7=2,8=2,9=2,10=2/1;
 7/10=1,12=2,25=1,30=1,44=2/1,2,3,16;
 1/5=1,6=500,10=4,11=1,18=20/3(2);
 2/9=110,15=1/2;
 99//99;
 2/9=110,15=1/2;
 3/5=16,6=1,11=2,25=1,30=1,71=1,74=-60,116=2/1,2,3;
 4/5=5,16=3,69=1/1;
 5/5=2,7=500,38=5/2;
 8/6=4,10=1/1;
 9/15=2,16=-3/6;
 10/5=1,31=1/2;
 7/12=2,30=1/1,2,3,16;
 1/5=1,6=500,11=1,18=20/3(-8);
 2/9=110,15=1/2;
 6/7=2,8=2,9=2,10=2/1;
 99/9=10/99;
 -------------------
 Title Card Required
 -------------------
 Symbolic Z-matrix:
 Charge =  0 Multiplicity = 2
 C                    -0.99025   0.96117   0.41426 
 C                    -1.50086  -0.09256  -0.17566 
 H                    -1.39912   1.71509   1.07105 
 H                    -0.84901  -0.69547  -0.80277 
 C                     2.09356  -0.97865   0.48284 
 H                     1.30575  -1.0361    1.23537 
 H                     2.29933  -1.96917   0.08164 
 H                     2.99599  -0.55521   0.9202 
 O                     1.66911  -0.207    -0.63169 
 O                     1.47146   1.12002  -0.17592 
 H                     0.40926   1.13441   0.10411 
 C                    -2.93442  -0.54073  -0.06021 
 H                    -3.50887   0.11936   0.58499 
 H                    -3.40274  -0.56012  -1.0445 
 H                    -2.98337  -1.55237   0.34346 
 
 Add virtual bond connecting atoms H11        and C1         Dist= 2.73D+00.
 The following ModRedundant input section has been read:
 D    *          1      10    *    R                                           
 D       3       1      10       9 S  36 10.000                                
 

 GradGradGradGradGradGradGradGradGradGradGradGradGradGradGradGradGradGrad
 Berny optimization.
 Initialization pass.
                           ----------------------------
                           !    Initial Parameters    !
                           ! (Angstroms and Degrees)  !
 --------------------------                            --------------------------
 ! Name  Definition              Value          Derivative Info.                !
 --------------------------------------------------------------------------------
 ! R1    R(1,2)                  1.3111         calculate D2E/DX2 analytically  !
 ! R2    R(1,3)                  1.0803         calculate D2E/DX2 analytically  !
 ! R3    R(1,11)                 1.4439         calculate D2E/DX2 analytically  !
 ! R4    R(2,4)                  1.087          calculate D2E/DX2 analytically  !
 ! R5    R(2,12)                 1.5064         calculate D2E/DX2 analytically  !
 ! R6    R(5,6)                  1.091          calculate D2E/DX2 analytically  !
 ! R7    R(5,7)                  1.0883         calculate D2E/DX2 analytically  !
 ! R8    R(5,8)                  1.0886         calculate D2E/DX2 analytically  !
 ! R9    R(5,9)                  1.4205         calculate D2E/DX2 analytically  !
 ! R10   R(9,10)                 1.417          calculate D2E/DX2 analytically  !
 ! R11   R(10,11)                1.0986         calculate D2E/DX2 analytically  !
 ! R12   R(12,13)                1.0872         calculate D2E/DX2 analytically  !
 ! R13   R(12,14)                1.0902         calculate D2E/DX2 analytically  !
 ! R14   R(12,15)                1.0903         calculate D2E/DX2 analytically  !
 ! A1    A(2,1,3)              133.3975         calculate D2E/DX2 analytically  !
 ! A2    A(2,1,11)             112.1633         calculate D2E/DX2 analytically  !
 ! A3    A(3,1,11)             114.4387         calculate D2E/DX2 analytically  !
 ! A4    A(1,2,4)              118.1496         calculate D2E/DX2 analytically  !
 ! A5    A(1,2,12)             125.1154         calculate D2E/DX2 analytically  !
 ! A6    A(4,2,12)             116.7346         calculate D2E/DX2 analytically  !
 ! A7    A(6,5,7)              110.0519         calculate D2E/DX2 analytically  !
 ! A8    A(6,5,8)              109.9981         calculate D2E/DX2 analytically  !
 ! A9    A(6,5,9)              110.7343         calculate D2E/DX2 analytically  !
 ! A10   A(7,5,8)              110.2068         calculate D2E/DX2 analytically  !
 ! A11   A(7,5,9)              105.1693         calculate D2E/DX2 analytically  !
 ! A12   A(8,5,9)              110.5882         calculate D2E/DX2 analytically  !
 ! A13   A(5,9,10)             107.3409         calculate D2E/DX2 analytically  !
 ! A14   A(9,10,11)            103.2453         calculate D2E/DX2 analytically  !
 ! A15   A(2,12,13)            111.5726         calculate D2E/DX2 analytically  !
 ! A16   A(2,12,14)            110.1753         calculate D2E/DX2 analytically  !
 ! A17   A(2,12,15)            110.3131         calculate D2E/DX2 analytically  !
 ! A18   A(13,12,14)           108.64           calculate D2E/DX2 analytically  !
 ! A19   A(13,12,15)           108.6569         calculate D2E/DX2 analytically  !
 ! A20   A(14,12,15)           107.3663         calculate D2E/DX2 analytically  !
 ! A21   L(1,11,10,6,-1)       174.5982         calculate D2E/DX2 analytically  !
 ! A22   L(1,11,10,6,-2)       174.0314         calculate D2E/DX2 analytically  !
 ! D1    D(3,1,2,4)            179.8395         calculate D2E/DX2 analytically  !
 ! D2    D(3,1,2,12)             0.0883         calculate D2E/DX2 analytically  !
 ! D3    D(11,1,2,4)             0.1219         calculate D2E/DX2 analytically  !
 ! D4    D(11,1,2,12)         -179.6292         calculate D2E/DX2 analytically  !
 ! D5    D(3,1,10,9)           161.8472         Scan                            !
 ! D6    D(1,2,12,13)           -0.2829         calculate D2E/DX2 analytically  !
 ! D7    D(1,2,12,14)          120.4769         calculate D2E/DX2 analytically  !
 ! D8    D(1,2,12,15)         -121.1577         calculate D2E/DX2 analytically  !
 ! D9    D(4,2,12,13)          179.9629         calculate D2E/DX2 analytically  !
 ! D10   D(4,2,12,14)          -59.2774         calculate D2E/DX2 analytically  !
 ! D11   D(4,2,12,15)           59.088          calculate D2E/DX2 analytically  !
 ! D12   D(6,5,9,10)            64.8928         calculate D2E/DX2 analytically  !
 ! D13   D(7,5,9,10)          -176.2596         calculate D2E/DX2 analytically  !
 ! D14   D(8,5,9,10)           -57.3034         calculate D2E/DX2 analytically  !
 ! D15   D(5,9,10,11)          -91.7104         calculate D2E/DX2 analytically  !
 --------------------------------------------------------------------------------
 Trust Radius=3.00D-01 FncErr=1.00D-07 GrdErr=1.00D-07 EigMax=2.50D+02 EigMin=1.00D-04
 Number of optimizations in scan=  37
 Number of steps in this run=    100 maximum allowed number of steps=    100.
 Search for a saddle point of order  1.
 GradGradGradGradGradGradGradGradGradGradGradGradGradGradGradGradGradGrad

                          Input orientation:                          
 ---------------------------------------------------------------------
 Center     Atomic      Atomic             Coordinates (Angstroms)
 Number     Number       Type             X           Y           Z
 ---------------------------------------------------------------------
      1          6           0       -0.990250    0.961169    0.414264
      2          6           0       -1.500863   -0.092560   -0.175663
      3          1           0       -1.399115    1.715094    1.071054
      4          1           0       -0.849013   -0.695468   -0.802773
      5          6           0        2.093563   -0.978645    0.482836
      6          1           0        1.305745   -1.036098    1.235365
      7          1           0        2.299325   -1.969169    0.081642
      8          1           0        2.995992   -0.555208    0.920200
      9          8           0        1.669112   -0.207001   -0.631691
     10          8           0        1.471460    1.120023   -0.175924
     11          1           0        0.409259    1.134407    0.104108
     12          6           0       -2.934415   -0.540731   -0.060208
     13          1           0       -3.508871    0.119356    0.584992
     14          1           0       -3.402738   -0.560121   -1.044501
     15          1           0       -2.983369   -1.552371    0.343461
 ---------------------------------------------------------------------
                    Distance matrix (angstroms):
                    1          2          3          4          5
     1  C    0.000000
     2  C    1.311139   0.000000
     3  H    1.080253   2.198242   0.000000
     4  H    2.060479   1.087048   3.102362   0.000000
     5  C    3.643828   3.760142   4.449835   3.223621   0.000000
     6  H    3.151964   3.279987   3.861648   2.985468   1.090989
     7  H    4.418011   4.246092   5.313303   3.509492   1.088316
     8  H    4.294822   4.651523   4.949141   4.215729   1.088561
     9  O    3.087207   3.204653   4.000976   2.570763   1.420480
    10  O    2.536449   3.210150   3.185791   3.012232   2.285910
    11  H    1.443895   2.287419   2.131290   2.398776   2.728608
    12  C    2.502120   1.506406   2.953920   2.219065   5.076143
    13  H    2.661062   2.157684   2.689555   3.108806   5.709931
    14  H    3.203501   2.142574   3.696847   2.568708   5.719899
    15  H    3.208648   2.144379   3.703455   2.569749   5.111147
                    6          7          8          9         10
     6  H    0.000000
     7  H    1.785749   0.000000
     8  H    1.785362   1.785444   0.000000
     9  O    2.074930   2.002810   2.071286   0.000000
    10  O    2.582258   3.208552   2.516363   1.416962   0.000000
    11  H    2.606630   3.633874   3.195621   1.981920   1.098588
    12  C    4.461262   5.427024   6.010918   4.650853   4.709907
    13  H    4.993855   6.192773   6.548331   5.329009   5.136538
    14  H    5.253014   5.980563   6.693566   5.100860   5.228300
    15  H    4.411182   5.305575   6.089312   4.940296   5.220819
                   11         12         13         14         15
    11  H    0.000000
    12  C    3.743427   0.000000
    13  H    4.075944   1.087197   0.000000
    14  H    4.326898   1.090200   1.768672   0.000000
    15  H    4.334281   1.090303   1.768943   1.756949   0.000000
 Symmetry turned off by external request.
 Stoichiometry    C4H9O2(2)
 Framework group  C1[X(C4H9O2)]
 Deg. of freedom    39
 Full point group                 C1      NOp   1
 Rotational constants (GHZ):           6.5293313           1.4712155           1.3115841
 Standard basis: CC-pVTZ (5D, 7F)
   306 basis functions,   465 primitive gaussians,   345 cartesian basis functions
    25 alpha electrons       24 beta electrons
       nuclear repulsion energy       232.0526202471 Hartrees.
 NAtoms=   15 NActive=   15 NUniq=   15 SFac= 1.00D+00 NAtFMM=   60 NAOKFM=F Big=F
 Integral buffers will be    131072 words long.
 Raffenetti 2 integral format.
 Two-electron integral symmetry is turned off.
 Nuclear repulsion after empirical dispersion term =      232.0455285008 Hartrees.
 One-electron integrals computed using PRISM.
 NBasis=   306 RedAO= T EigKep=  4.41D-04  NBF=   306
 NBsUse=   306 1.00D-06 EigRej= -1.00D+00 NBFU=   306
 ExpMin= 1.03D-01 ExpMax= 1.53D+04 ExpMxC= 5.22D+02 IAcc=3 IRadAn=         5 AccDes= 0.00D+00
 Harris functional with IExCor=  419 and IRadAn=       5 diagonalized for initial guess.
 HarFok:  IExCor=  419 AccDes= 0.00D+00 IRadAn=         5 IDoV= 1 UseB2=F ITyADJ=14
 ICtDFT=  3500011 ScaDFX=  1.000000  1.000000  1.000000  1.000000
 FoFCou: FMM=F IPFlag=           0 FMFlag=      100000 FMFlg1=           0
         NFxFlg=           0 DoJE=T BraDBF=F KetDBF=T FulRan=T
         wScrn=  0.000000 ICntrl=       500 IOpCl=  0 I1Cent=   200000004 NGrid=           0
         NMat0=    1 NMatS0=      1 NMatT0=    0 NMatD0=    1 NMtDS0=    0 NMtDT0=    0
 Symmetry not used in FoFCou.
 Initial guess <Sx>= 0.0000 <Sy>= 0.0000 <Sz>= 0.5000 <S**2>= 0.7500 S= 0.5000
 Requested convergence on RMS density matrix=1.00D-08 within 500 cycles.
 Requested convergence on MAX density matrix=1.00D-06.
 Requested convergence on             energy=1.00D-06.
 No special actions if energy rises.
 Integral accuracy reduced to 1.0D-05 until final iterations.
 Initial convergence to 1.0D-05 achieved.  Increase integral accuracy.
 SCF Done:  E(UB2PLYPD3) =  -307.564584653     A.U. after   22 cycles
            NFock= 22  Conv=0.82D-08     -V/T= 2.0043
 <Sx>= 0.0000 <Sy>= 0.0000 <Sz>= 0.5000 <S**2>= 0.7792 S= 0.5145
 <L.S>=  0.00000000000    
 Annihilation of the first spin contaminant:
 S**2 before annihilation     0.7792,   after     0.7506
 DoSCS=T DFT=T ScalE2(SS,OS)=  0.270000  0.270000
 ExpMin= 1.03D-01 ExpMax= 1.53D+04 ExpMxC= 5.22D+02 IAcc=3 IRadAn=         5 AccDes= 0.00D+00
 HarFok:  IExCor=  205 AccDes= 0.00D+00 IRadAn=         5 IDoV=-2 UseB2=F ITyADJ=14
 ICtDFT= 12500011 ScaDFX=  1.000000  1.000000  1.000000  1.000000
 Range of M.O.s used for correlation:     7   306
 NBasis=   306 NAE=    25 NBE=    24 NFC=     6 NFV=     0
 NROrb=    300 NOA=    19 NOB=    18 NVA=   281 NVB=   282

 **** Warning!!: The largest alpha MO coefficient is  0.11822725D+02


 **** Warning!!: The largest beta MO coefficient is  0.11826336D+02

 DoSCS=T DFT=T ScalE2(SS,OS)=  0.270000  0.270000
 Disk-based method using ON**2 memory for 19 occupieds at a time.
 Permanent disk used for amplitudes=    70282596 words.
 Estimated scratch disk usage=  1317084640 words.
 Actual    scratch disk usage=  1273976288 words.
 JobTyp=2 Pass  1:  I=   7 to  25 NPSUse= 40 ParTrn=T ParDer=T DoDerP=T.
 (rs|ai) integrals will be sorted in core.
 Actual    scratch disk usage=  1273976288 words.
 JobTyp=3 Pass  1:  I=   7 to  24 NPSUse= 40 ParTrn=T ParDer=T DoDerP=T.
 (rs|ai) integrals will be sorted in core.
 Spin components of T(2) and E(2):
     alpha-alpha T2 =       0.6510047824D-01 E2=     -0.4677786177D-01
     alpha-beta  T2 =       0.4000130676D+00 E2=     -0.2900106968D+00
     beta-beta   T2 =       0.6924616868D-01 E2=     -0.4528790634D-01
 (S**2,0)=  0.77915D+00           (S**2,1)=  0.75086D+00
 Scaling Projection term by:   0.270000
 E(PUHF)=      -0.30757075256D+03        E(PMP2)=      -0.30794752769D+03
 E2(B2PLYPD3) =    -0.3820764649D+00 E(B2PLYPD3) =    -0.30794666111769D+03
 G2DrvN: will do    16 centers at a time, making    1 passes.
 Calling FoFCou, ICntrl=  3107 FMM=F I1Cent=   0 AccDes= 0.00D+00.
 End of G2Drv F.D. properties file   721 does not exist.
 End of G2Drv F.D. properties file   722 does not exist.
 End of G2Drv F.D. properties file   788 does not exist.
          IDoAtm=111111111111111
          Differentiating once with respect to electric field.
                with respect to dipole field.
          Differentiating once with respect to nuclear coordinates.
 Keep R1 and R2 ints in memory in canonical form, NReq=2252447564.
          There are    48 degrees of freedom in the 1st order CPHF.  IDoFFX=6 NUNeed=    48.
     45 vectors produced by pass  0 Test12= 2.87D-14 2.08D-09 XBig12= 7.15D+01 4.33D+00.
 AX will form    45 AO Fock derivatives at one time.
     45 vectors produced by pass  1 Test12= 2.87D-14 2.08D-09 XBig12= 6.08D+00 4.09D-01.
     45 vectors produced by pass  2 Test12= 2.87D-14 2.08D-09 XBig12= 3.58D-01 1.10D-01.
     45 vectors produced by pass  3 Test12= 2.87D-14 2.08D-09 XBig12= 6.25D-03 1.09D-02.
     45 vectors produced by pass  4 Test12= 2.87D-14 2.08D-09 XBig12= 7.65D-05 9.12D-04.
     45 vectors produced by pass  5 Test12= 2.87D-14 2.08D-09 XBig12= 6.69D-07 9.39D-05.
     45 vectors produced by pass  6 Test12= 2.87D-14 2.08D-09 XBig12= 6.55D-09 8.48D-06.
     22 vectors produced by pass  7 Test12= 2.87D-14 2.08D-09 XBig12= 3.63D-11 5.60D-07.
      3 vectors produced by pass  8 Test12= 2.87D-14 2.08D-09 XBig12= 2.69D-13 7.30D-08.
      2 vectors produced by pass  9 Test12= 2.87D-14 2.08D-09 XBig12= 2.09D-15 3.99D-09.
 InvSVY:  IOpt=1 It=  1 EMax= 3.55D-15
 Solved reduced A of dimension   342 with    48 vectors.
 End of Minotr F.D. properties file   721 does not exist.
 End of Minotr F.D. properties file   722 does not exist.
 End of Minotr F.D. properties file   788 does not exist.
 MDV= 10737418240.
 DoSCS=T DFT=T ScalE2(SS,OS)=  0.270000  0.270000
 Form MO integral derivatives with frozen-active canonical formalism.
 Discarding MO integrals.
 Reordered first order wavefunction length =    283226920
 In DefCFB: NBatch=  1 ICI= 25 ICA=282 LFMax= 71
            Large arrays: LIAPS=  5824508040 LIARS=  1191802500 words.
 In DefCFB: NBatch=  1 ICI= 25 ICA=282 LFMax= 71
            Large arrays: LIAPS=  5824508040 LIARS=  1191802500 words.
 Semi-Direct transformation.
 ModeAB=           4 MOrb=            25 LenV=   10734628245
 LASXX=    339668775 LTotXX=   339668775 LenRXX=   684905625
 LTotAB=   345236850 MaxLAS=   406559250 LenRXY=           0
 NonZer=  1024574400 LenScr=  1542889472 LnRSAI=   406559250
 LnScr1=   612231168 LExtra=           0 Total=   3246585515
 MaxDsk=          -1 SrtSym=           T ITran=            4
 JobTyp=1 Pass  1:  I=   1 to  25.
 (rs|ai) integrals will be sorted in core.
 ModeAB=           4 MOrb=            24 LenV=   10734628245
 LASXX=    326802342 LTotXX=   326802342 LenRXX=   606843570
 LTotAB=   280041228 MaxLAS=   390296880 LenRXY=           0
 NonZer=   933645912 LenScr=  1405961216 LnRSAI=   390296880
 LnScr1=   587742208 LExtra=           0 Total=   2990843874
 MaxDsk=          -1 SrtSym=           T ITran=            4
 JobTyp=2 Pass  1:  I=   1 to  24.
 (rs|ai) integrals will be sorted in core.
 DoSCS=T DFT=T ScalE2(SS,OS)=  0.270000  0.270000
 Spin components of T(2) and E(2):
     alpha-alpha T2 =       0.6510047824D-01 E2=     -0.4677786177D-01
     alpha-beta  T2 =       0.4000130676D+00 E2=     -0.2900106968D+00
     beta-beta   T2 =       0.6924616868D-01 E2=     -0.4528790634D-01
 E2(B2PLYPD3) =    -0.3820764649D+00 E(B2PLYPD3) =    -0.30794666111769D+03
 (S**2,0)=  0.77915D+00           (S**2,1)=  0.75086D+00
 Scaling Projection term by:   0.270000
 E(PUHF)=      -0.30757075256D+03        E(PMP2)=      -0.30794752769D+03
          IDoAtm=111111111111111
          Differentiating once with respect to electric field.
                with respect to dipole field.
          Differentiating once with respect to nuclear coordinates.
 Keep R1 and R2 ints in memory in canonical form, NReq=2252583484.
          There are     1 degrees of freedom in the 1st order CPHF.  IDoFFX=0 NUNeed=     1.
 LinEq1:  Iter=  0 NonCon=     1 RMS=9.93D-04 Max=7.15D-02 NDo=     1
 AX will form     1 AO Fock derivatives at one time.
 LinEq1:  Iter=  1 NonCon=     1 RMS=3.35D-04 Max=1.39D-02 NDo=     1
 LinEq1:  Iter=  2 NonCon=     1 RMS=2.08D-04 Max=1.05D-02 NDo=     1
 LinEq1:  Iter=  3 NonCon=     1 RMS=1.02D-04 Max=5.06D-03 NDo=     1
 LinEq1:  Iter=  4 NonCon=     1 RMS=7.56D-05 Max=4.34D-03 NDo=     1
 LinEq1:  Iter=  5 NonCon=     1 RMS=3.27D-05 Max=1.28D-03 NDo=     1
 LinEq1:  Iter=  6 NonCon=     1 RMS=2.29D-05 Max=8.31D-04 NDo=     1
 LinEq1:  Iter=  7 NonCon=     1 RMS=8.86D-06 Max=2.93D-04 NDo=     1
 LinEq1:  Iter=  8 NonCon=     1 RMS=6.32D-06 Max=2.21D-04 NDo=     1
 LinEq1:  Iter=  9 NonCon=     1 RMS=2.80D-06 Max=7.89D-05 NDo=     1
 LinEq1:  Iter= 10 NonCon=     1 RMS=1.05D-06 Max=2.46D-05 NDo=     1
 LinEq1:  Iter= 11 NonCon=     1 RMS=4.20D-07 Max=8.72D-06 NDo=     1
 LinEq1:  Iter= 12 NonCon=     1 RMS=1.90D-07 Max=3.39D-06 NDo=     1
 LinEq1:  Iter= 13 NonCon=     1 RMS=9.18D-08 Max=1.94D-06 NDo=     1
 LinEq1:  Iter= 14 NonCon=     1 RMS=2.64D-08 Max=5.01D-07 NDo=     1
 LinEq1:  Iter= 15 NonCon=     1 RMS=7.47D-09 Max=1.35D-07 NDo=     1
 LinEq1:  Iter= 16 NonCon=     1 RMS=2.65D-09 Max=5.70D-08 NDo=     1
 LinEq1:  Iter= 17 NonCon=     1 RMS=1.23D-09 Max=3.35D-08 NDo=     1
 LinEq1:  Iter= 18 NonCon=     1 RMS=4.05D-10 Max=1.72D-08 NDo=     1
 LinEq1:  Iter= 19 NonCon=     1 RMS=1.30D-10 Max=5.99D-09 NDo=     1
 LinEq1:  Iter= 20 NonCon=     1 RMS=4.69D-11 Max=2.29D-09 NDo=     1
 LinEq1:  Iter= 21 NonCon=     0 RMS=1.42D-11 Max=4.51D-10 NDo=     1
 Linear equations converged to 1.000D-10 1.000D-09 after    21 iterations.
 End of Minotr F.D. properties file   721 does not exist.
 End of Minotr F.D. properties file   722 does not exist.
 End of Minotr F.D. properties file   788 does not exist.
 Symmetrizing basis deriv contribution to polar:
 IMax=3 JMax=2 DiffMx= 0.00D+00
 G2DrvN: will do    16 centers at a time, making    1 passes.
 Calling FoFCou, ICntrl=  3107 FMM=F I1Cent=   0 AccDes= 0.00D+00.
 End of G2Drv F.D. properties file   721 does not exist.
 End of G2Drv F.D. properties file   722 does not exist.
 End of G2Drv F.D. properties file   788 does not exist.
 DoSCS=T DFT=T ScalE2(SS,OS)=  0.270000  0.270000
 R2 and R3 integrals will be kept in memory, NReq=  3583069605.
 DD1Dir will call FoFMem   1 times, MxPair=      1776
 NAB=   600 NAA=   300 NBB=   276.
 Discarding MO integrals.

 **********************************************************************

            Population analysis using the SCF Density.

 **********************************************************************

 Alpha  occ. eigenvalues --  -19.78395 -19.77992 -10.65773 -10.64470 -10.63587
 Alpha  occ. eigenvalues --  -10.62617  -1.26980  -1.02353  -0.92621  -0.81184
 Alpha  occ. eigenvalues --   -0.77426  -0.65951  -0.61834  -0.55401  -0.54147
 Alpha  occ. eigenvalues --   -0.53262  -0.51540  -0.49398  -0.48435  -0.44757
 Alpha  occ. eigenvalues --   -0.43686  -0.37253  -0.36783  -0.32981  -0.30656
 Alpha virt. eigenvalues --    0.05930   0.07841   0.09822   0.10848   0.12726
 Alpha virt. eigenvalues --    0.14082   0.14879   0.15258   0.16910   0.17242
 Alpha virt. eigenvalues --    0.19582   0.22484   0.26963   0.29135   0.29803
 Alpha virt. eigenvalues --    0.31679   0.32908   0.34937   0.36001   0.37686
 Alpha virt. eigenvalues --    0.41676   0.43435   0.45252   0.46517   0.47607
 Alpha virt. eigenvalues --    0.49040   0.50696   0.51278   0.51600   0.52252
 Alpha virt. eigenvalues --    0.52649   0.53777   0.54003   0.56180   0.57142
 Alpha virt. eigenvalues --    0.59559   0.61470   0.62957   0.68132   0.68323
 Alpha virt. eigenvalues --    0.70302   0.70344   0.72558   0.73615   0.76538
 Alpha virt. eigenvalues --    0.77102   0.79620   0.85399   0.86576   0.88915
 Alpha virt. eigenvalues --    0.93153   0.93756   0.95214   0.97588   0.98314
 Alpha virt. eigenvalues --    1.00303   1.03655   1.05722   1.06169   1.06422
 Alpha virt. eigenvalues --    1.08523   1.09309   1.12172   1.13465   1.14460
 Alpha virt. eigenvalues --    1.16435   1.16858   1.18185   1.19268   1.20143
 Alpha virt. eigenvalues --    1.23314   1.27774   1.29961   1.31583   1.32921
 Alpha virt. eigenvalues --    1.35625   1.37567   1.38663   1.39263   1.39905
 Alpha virt. eigenvalues --    1.42205   1.44852   1.47830   1.48468   1.50850
 Alpha virt. eigenvalues --    1.52870   1.55814   1.56754   1.59685   1.62249
 Alpha virt. eigenvalues --    1.64437   1.75485   1.77202   1.80688   1.84504
 Alpha virt. eigenvalues --    1.91923   1.95743   1.99200   2.03562   2.12365
 Alpha virt. eigenvalues --    2.17497   2.17727   2.20016   2.27155   2.28934
 Alpha virt. eigenvalues --    2.34507   2.35795   2.37970   2.38698   2.41958
 Alpha virt. eigenvalues --    2.43144   2.45892   2.49928   2.51795   2.55659
 Alpha virt. eigenvalues --    2.58841   2.60400   2.64946   2.66851   2.72981
 Alpha virt. eigenvalues --    2.74286   2.78376   2.81388   2.84930   2.86098
 Alpha virt. eigenvalues --    2.90664   2.90852   2.91591   2.92325   2.92972
 Alpha virt. eigenvalues --    2.95423   2.96943   2.99376   3.02706   3.03691
 Alpha virt. eigenvalues --    3.04871   3.06209   3.06851   3.08633   3.10751
 Alpha virt. eigenvalues --    3.12335   3.12935   3.14370   3.15079   3.16870
 Alpha virt. eigenvalues --    3.18161   3.18864   3.21444   3.24580   3.26624
 Alpha virt. eigenvalues --    3.26872   3.32475   3.35714   3.36252   3.38983
 Alpha virt. eigenvalues --    3.40864   3.42818   3.43726   3.45003   3.50953
 Alpha virt. eigenvalues --    3.52044   3.52394   3.54322   3.55447   3.56168
 Alpha virt. eigenvalues --    3.56457   3.58905   3.59865   3.60708   3.63790
 Alpha virt. eigenvalues --    3.65786   3.66987   3.70698   3.75217   3.76926
 Alpha virt. eigenvalues --    3.79328   3.82983   3.83921   3.86298   3.87059
 Alpha virt. eigenvalues --    3.88902   3.89919   3.92587   3.95813   3.96607
 Alpha virt. eigenvalues --    4.00103   4.01098   4.02033   4.04115   4.05872
 Alpha virt. eigenvalues --    4.06719   4.11270   4.12491   4.14916   4.15854
 Alpha virt. eigenvalues --    4.16725   4.19376   4.20445   4.21785   4.22561
 Alpha virt. eigenvalues --    4.27703   4.28172   4.31444   4.34413   4.36515
 Alpha virt. eigenvalues --    4.38006   4.38299   4.43446   4.48422   4.49295
 Alpha virt. eigenvalues --    4.52336   4.53176   4.58890   4.66542   4.67828
 Alpha virt. eigenvalues --    4.68828   4.72139   4.78594   4.82141   4.85831
 Alpha virt. eigenvalues --    4.92829   4.93193   4.95574   4.98891   5.00608
 Alpha virt. eigenvalues --    5.01235   5.03494   5.05961   5.07401   5.15673
 Alpha virt. eigenvalues --    5.16954   5.18027   5.23484   5.30592   5.31493
 Alpha virt. eigenvalues --    5.31988   5.34154   5.35338   5.36349   5.37960
 Alpha virt. eigenvalues --    5.40346   5.40871   5.42574   5.44088   5.46985
 Alpha virt. eigenvalues --    5.49630   5.54327   5.66536   5.68831   5.75941
 Alpha virt. eigenvalues --    5.81055   5.89083   5.93257   5.97558   5.98871
 Alpha virt. eigenvalues --    6.02834   6.08517   6.09984   6.22676   6.28360
 Alpha virt. eigenvalues --    6.37105   6.39792   6.55140   6.65264   6.76953
 Alpha virt. eigenvalues --    6.79281   6.85166   6.97473   7.05714   7.06373
 Alpha virt. eigenvalues --    7.22094   7.40093   7.42335   7.60870   7.81143
 Alpha virt. eigenvalues --    9.97760  10.35482  10.89203  13.44469  13.69754
 Alpha virt. eigenvalues --   14.07315
  Beta  occ. eigenvalues --  -19.78289 -19.76705 -10.65778 -10.63845 -10.62839
  Beta  occ. eigenvalues --  -10.62438  -1.25451  -1.00028  -0.91424  -0.79151
  Beta  occ. eigenvalues --   -0.77082  -0.64183  -0.58554  -0.54519  -0.53883
  Beta  occ. eigenvalues --   -0.52331  -0.49723  -0.49516  -0.46062  -0.43894
  Beta  occ. eigenvalues --   -0.43095  -0.35793  -0.33935  -0.31929
  Beta virt. eigenvalues --   -0.05162   0.06685   0.07963   0.10012   0.11233
  Beta virt. eigenvalues --    0.13367   0.14157   0.15000   0.15390   0.16985
  Beta virt. eigenvalues --    0.17353   0.20151   0.22708   0.27575   0.29466
  Beta virt. eigenvalues --    0.29885   0.31813   0.33558   0.35457   0.36316
  Beta virt. eigenvalues --    0.38303   0.42343   0.44085   0.45417   0.47543
  Beta virt. eigenvalues --    0.48014   0.49286   0.51369   0.51713   0.51889
  Beta virt. eigenvalues --    0.52563   0.52729   0.53937   0.54262   0.56604
  Beta virt. eigenvalues --    0.59286   0.61179   0.61837   0.63117   0.68526
  Beta virt. eigenvalues --    0.69086   0.70927   0.71089   0.72760   0.73709
  Beta virt. eigenvalues --    0.77312   0.77647   0.80101   0.85808   0.86803
  Beta virt. eigenvalues --    0.89254   0.93328   0.94206   0.95403   0.97863
  Beta virt. eigenvalues --    0.98529   1.00890   1.03838   1.05857   1.06535
  Beta virt. eigenvalues --    1.06578   1.08687   1.09684   1.12633   1.13672
  Beta virt. eigenvalues --    1.14677   1.16644   1.17281   1.18416   1.19735
  Beta virt. eigenvalues --    1.20405   1.23553   1.28298   1.30664   1.31878
  Beta virt. eigenvalues --    1.33321   1.35774   1.37635   1.38877   1.39320
  Beta virt. eigenvalues --    1.39973   1.42607   1.45138   1.47930   1.48779
  Beta virt. eigenvalues --    1.51461   1.53431   1.56433   1.57130   1.59882
  Beta virt. eigenvalues --    1.62446   1.64870   1.76048   1.77984   1.81460
  Beta virt. eigenvalues --    1.85851   1.93145   1.97249   1.99716   2.04290
  Beta virt. eigenvalues --    2.12642   2.18277   2.19229   2.20572   2.27599
  Beta virt. eigenvalues --    2.29538   2.34466   2.36022   2.38236   2.39489
  Beta virt. eigenvalues --    2.42287   2.43825   2.46483   2.49990   2.52142
  Beta virt. eigenvalues --    2.56187   2.59122   2.61127   2.65727   2.67971
  Beta virt. eigenvalues --    2.73867   2.74643   2.78514   2.81947   2.85660
  Beta virt. eigenvalues --    2.86255   2.90865   2.91773   2.92119   2.92809
  Beta virt. eigenvalues --    2.93189   2.96140   2.97884   3.00010   3.03244
  Beta virt. eigenvalues --    3.04167   3.05070   3.06682   3.07395   3.08841
  Beta virt. eigenvalues --    3.10961   3.12541   3.14056   3.14640   3.15402
  Beta virt. eigenvalues --    3.17094   3.18405   3.19684   3.21657   3.25859
  Beta virt. eigenvalues --    3.27840   3.28039   3.33715   3.36796   3.36993
  Beta virt. eigenvalues --    3.39691   3.40701   3.42840   3.43812   3.45225
  Beta virt. eigenvalues --    3.51020   3.52502   3.52586   3.54589   3.55683
  Beta virt. eigenvalues --    3.56282   3.56766   3.59038   3.60066   3.61031
  Beta virt. eigenvalues --    3.64077   3.65938   3.67565   3.71294   3.75734
  Beta virt. eigenvalues --    3.77097   3.79834   3.83072   3.84190   3.86578
  Beta virt. eigenvalues --    3.87381   3.89178   3.89879   3.92736   3.95946
  Beta virt. eigenvalues --    3.96821   4.00348   4.01216   4.02284   4.03873
  Beta virt. eigenvalues --    4.06149   4.06979   4.11586   4.12773   4.15137
  Beta virt. eigenvalues --    4.16065   4.17009   4.19490   4.20504   4.21903
  Beta virt. eigenvalues --    4.22631   4.27934   4.28479   4.32195   4.34851
  Beta virt. eigenvalues --    4.36847   4.38283   4.38826   4.43779   4.48649
  Beta virt. eigenvalues --    4.49519   4.52711   4.53748   4.59710   4.67077
  Beta virt. eigenvalues --    4.68202   4.69565   4.72784   4.79244   4.82249
  Beta virt. eigenvalues --    4.86306   4.92894   4.93454   4.95735   4.98937
  Beta virt. eigenvalues --    5.00793   5.01500   5.03623   5.06134   5.07652
  Beta virt. eigenvalues --    5.16367   5.18036   5.18802   5.24273   5.31002
  Beta virt. eigenvalues --    5.31616   5.32108   5.34414   5.35579   5.36608
  Beta virt. eigenvalues --    5.38193   5.40496   5.41521   5.43083   5.44071
  Beta virt. eigenvalues --    5.47208   5.49735   5.54528   5.67613   5.69513
  Beta virt. eigenvalues --    5.76712   5.81959   5.89715   5.93314   5.97750
  Beta virt. eigenvalues --    5.98943   6.03390   6.08859   6.10728   6.23658
  Beta virt. eigenvalues --    6.28707   6.37794   6.41556   6.56255   6.66419
  Beta virt. eigenvalues --    6.79072   6.80358   6.86173   6.98831   7.06156
  Beta virt. eigenvalues --    7.07569   7.23703   7.41574   7.42901   7.62711
  Beta virt. eigenvalues --    7.81619   9.98226  10.36156  10.90103  13.44478
  Beta virt. eigenvalues --   13.69930  14.07887
          Condensed to atoms (all electrons):
               1          2          3          4          5          6
     1  C    5.274291   0.623463   0.392693  -0.053742  -0.003996   0.004972
     2  C    0.623463   4.921401  -0.050610   0.399731  -0.001351  -0.000311
     3  H    0.392693  -0.050610   0.504058   0.005016   0.000086  -0.000237
     4  H   -0.053742   0.399731   0.005016   0.505746  -0.002269  -0.002436
     5  C   -0.003996  -0.001351   0.000086  -0.002269   4.612338   0.395937
     6  H    0.004972  -0.000311  -0.000237  -0.002436   0.395937   0.669865
     7  H    0.000389  -0.000165  -0.000005  -0.000288   0.394348  -0.036669
     8  H   -0.000674   0.000418  -0.000009   0.000712   0.412985  -0.055568
     9  O   -0.004675   0.000253   0.000152   0.018074   0.296817  -0.050498
    10  O   -0.068237  -0.001057   0.000998  -0.002005  -0.042514  -0.003229
    11  H    0.164903  -0.002557  -0.007077  -0.002381   0.003730   0.004703
    12  C   -0.059126   0.337144  -0.004224  -0.035995  -0.000150  -0.000017
    13  H    0.000629  -0.040104   0.003081   0.004592  -0.000005   0.000015
    14  H    0.000971  -0.039783   0.000065  -0.002841  -0.000003   0.000019
    15  H   -0.000388  -0.039664   0.000005  -0.001495   0.000047  -0.000103
               7          8          9         10         11         12
     1  C    0.000389  -0.000674  -0.004675  -0.068237   0.164903  -0.059126
     2  C   -0.000165   0.000418   0.000253  -0.001057  -0.002557   0.337144
     3  H   -0.000005  -0.000009   0.000152   0.000998  -0.007077  -0.004224
     4  H   -0.000288   0.000712   0.018074  -0.002005  -0.002381  -0.035995
     5  C    0.394348   0.412985   0.296817  -0.042514   0.003730  -0.000150
     6  H   -0.036669  -0.055568  -0.050498  -0.003229   0.004703  -0.000017
     7  H    0.596155  -0.026436  -0.027278   0.006949  -0.000879  -0.000023
     8  H   -0.026436   0.601544  -0.035818   0.004332   0.000071   0.000002
     9  O   -0.027278  -0.035818   7.955362   0.072575  -0.030173   0.000182
    10  O    0.006949   0.004332   0.072575   8.010452   0.251964   0.000041
    11  H   -0.000879   0.000071  -0.030173   0.251964   0.388069   0.001361
    12  C   -0.000023   0.000002   0.000182   0.000041   0.001361   4.794744
    13  H    0.000000  -0.000000  -0.000013   0.000015  -0.000068   0.409753
    14  H   -0.000001  -0.000000  -0.000015   0.000014  -0.000101   0.409226
    15  H    0.000006  -0.000001   0.000008   0.000007  -0.000035   0.408448
              13         14         15
     1  C    0.000629   0.000971  -0.000388
     2  C   -0.040104  -0.039783  -0.039664
     3  H    0.003081   0.000065   0.000005
     4  H    0.004592  -0.002841  -0.001495
     5  C   -0.000005  -0.000003   0.000047
     6  H    0.000015   0.000019  -0.000103
     7  H    0.000000  -0.000001   0.000006
     8  H   -0.000000  -0.000000  -0.000001
     9  O   -0.000013  -0.000015   0.000008
    10  O    0.000015   0.000014   0.000007
    11  H   -0.000068  -0.000101  -0.000035
    12  C    0.409753   0.409226   0.408448
    13  H    0.576899  -0.027128  -0.027719
    14  H   -0.027128   0.588077  -0.036318
    15  H   -0.027719  -0.036318   0.594122
          Atomic-Atomic Spin Densities.
               1          2          3          4          5          6
     1  C    0.864110  -0.028091   0.003840  -0.004943   0.000494  -0.003677
     2  C   -0.028091  -0.169478  -0.001685   0.007770  -0.000092   0.000069
     3  H    0.003840  -0.001685   0.022861   0.001056  -0.000025   0.000322
     4  H   -0.004943   0.007770   0.001056   0.027903  -0.000329   0.001019
     5  C    0.000494  -0.000092  -0.000025  -0.000329  -0.003809   0.004009
     6  H   -0.003677   0.000069   0.000322   0.001019   0.004009  -0.000296
     7  H    0.000133  -0.000022  -0.000004  -0.000095   0.000301  -0.000655
     8  H    0.000984  -0.000085  -0.000050  -0.000160  -0.002072  -0.000502
     9  O    0.011228  -0.000903  -0.000393  -0.003773  -0.000059  -0.000509
    10  O   -0.082615   0.004417   0.003539   0.002740  -0.001461   0.002860
    11  H    0.045458   0.000395  -0.000711   0.000114   0.000779  -0.002837
    12  C   -0.020335   0.020274  -0.004654  -0.007368   0.000053  -0.000182
    13  H    0.001660  -0.000086   0.000683   0.000266  -0.000000   0.000007
    14  H    0.001325   0.002673   0.000255   0.000878  -0.000001   0.000005
    15  H    0.001389   0.002691   0.000249   0.000701  -0.000011   0.000047
               7          8          9         10         11         12
     1  C    0.000133   0.000984   0.011228  -0.082615   0.045458  -0.020335
     2  C   -0.000022  -0.000085  -0.000903   0.004417   0.000395   0.020274
     3  H   -0.000004  -0.000050  -0.000393   0.003539  -0.000711  -0.004654
     4  H   -0.000095  -0.000160  -0.003773   0.002740   0.000114  -0.007368
     5  C    0.000301  -0.002072  -0.000059  -0.001461   0.000779   0.000053
     6  H   -0.000655  -0.000502  -0.000509   0.002860  -0.002837  -0.000182
     7  H   -0.001209   0.000903   0.000152  -0.000184   0.000096   0.000007
     8  H    0.000903   0.002058  -0.000263  -0.000412   0.001128   0.000010
     9  O    0.000152  -0.000263   0.036299  -0.031552   0.007990   0.000219
    10  O   -0.000184  -0.000412  -0.031552   0.456478  -0.030241  -0.000462
    11  H    0.000096   0.001128   0.007990  -0.030241  -0.094549   0.000390
    12  C    0.000007   0.000010   0.000219  -0.000462   0.000390   0.083434
    13  H   -0.000000  -0.000000  -0.000006   0.000018  -0.000059  -0.002450
    14  H   -0.000000  -0.000000  -0.000012   0.000019  -0.000025  -0.004315
    15  H   -0.000002  -0.000001  -0.000019   0.000019  -0.000020  -0.004113
              13         14         15
     1  C    0.001660   0.001325   0.001389
     2  C   -0.000086   0.002673   0.002691
     3  H    0.000683   0.000255   0.000249
     4  H    0.000266   0.000878   0.000701
     5  C   -0.000000  -0.000001  -0.000011
     6  H    0.000007   0.000005   0.000047
     7  H   -0.000000  -0.000000  -0.000002
     8  H   -0.000000  -0.000000  -0.000001
     9  O   -0.000006  -0.000012  -0.000019
    10  O    0.000018   0.000019   0.000019
    11  H   -0.000059  -0.000025  -0.000020
    12  C   -0.002450  -0.004315  -0.004113
    13  H   -0.004777   0.001099   0.001071
    14  H    0.001099  -0.007910   0.003084
    15  H    0.001071   0.003084  -0.007844
 Mulliken charges and spin densities:
               1          2
     1  C   -0.271474   0.790959
     2  C   -0.106808  -0.162155
     3  H    0.156009   0.025284
     4  H    0.169582   0.025778
     5  C   -0.066002  -0.002224
     6  H    0.073557  -0.000321
     7  H    0.093897  -0.000581
     8  H    0.098442   0.001537
     9  O   -0.194953   0.018399
    10  O   -0.230304   0.323165
    11  H    0.228470  -0.072091
    12  C   -0.261367   0.060509
    13  H    0.100053  -0.002573
    14  H    0.107819  -0.002926
    15  H    0.103080  -0.002761
 Sum of Mulliken charges =  -0.00000   1.00000
 Mulliken charges and spin densities with hydrogens summed into heavy atoms:
               1          2
     1  C   -0.115465   0.816243
     2  C    0.062774  -0.136376
     5  C    0.199895  -0.001588
     9  O   -0.194953   0.018399
    10  O   -0.001835   0.251074
    12  C    0.049585   0.052248
 APT charges:
               1
     1  C    0.211807
     2  C   -0.116163
     3  H    0.024049
     4  H    0.064452
     5  C    0.425402
     6  H   -0.037139
     7  H   -0.006340
     8  H   -0.031156
     9  O   -0.366695
    10  O    0.037377
    11  H   -0.267438
    12  C    0.117086
    13  H   -0.006112
    14  H   -0.024178
    15  H   -0.024952
 Sum of APT charges =  -0.00000
 APT charges with hydrogens summed into heavy atoms:
               1
     1  C    0.235856
     2  C   -0.051711
     5  C    0.350767
     9  O   -0.366695
    10  O   -0.230062
    12  C    0.061844
 Electronic spatial extent (au):  <R**2>=            927.2491
 Charge=             -0.0000 electrons
 Dipole moment (field-independent basis, Debye):
    X=             -2.1252    Y=             -1.6056    Z=              1.5355  Tot=              3.0745
 Quadrupole moment (field-independent basis, Debye-Ang):
   XX=            -35.2559   YY=            -36.6268   ZZ=            -39.0180
   XY=             -3.6095   XZ=              2.2382   YZ=              1.6581
 Traceless Quadrupole moment (field-independent basis, Debye-Ang):
   XX=              1.7110   YY=              0.3401   ZZ=             -2.0511
   XY=             -3.6095   XZ=              2.2382   YZ=              1.6581
 Octapole moment (field-independent basis, Debye-Ang**2):
  XXX=              7.9079  YYY=             -0.3559  ZZZ=             -2.8478  XYY=              2.6557
  XXY=             -7.7406  XXZ=              4.5989  XZZ=              1.9786  YZZ=              0.9342
  YYZ=              2.1777  XYZ=             -2.9219
 Hexadecapole moment (field-independent basis, Debye-Ang**3):
 XXXX=           -893.1471 YYYY=           -195.1397 ZZZZ=            -92.3348 XXXY=             -8.5787
 XXXZ=              6.7485 YYYX=             -5.6642 YYYZ=              6.5491 ZZZX=             -1.2841
 ZZZY=              1.7922 XXYY=           -184.6163 XXZZ=           -168.1344 YYZZ=            -47.5452
 XXYZ=              3.8539 YYXZ=             -6.4874 ZZXY=             -0.2547
 N-N= 2.320455285008D+02 E-N=-1.184346346503D+03  KE= 3.062360878004D+02
  Exact polarizability:  97.281   0.063  63.431  -0.940   5.760  48.849
 Approx polarizability:  77.693   3.227  75.745  -1.439   9.305  59.366
                          Isotropic Fermi Contact Couplings
        Atom                 a.u.       MegaHertz       Gauss      10(-4) cm-1
     1  C(13)              0.19504     219.26188      78.23809      73.13789
     2  C(13)              0.00417       4.68229       1.67076       1.56184
     3  H(1)               0.01315      58.75965      20.96690      19.60011
     4  H(1)               0.01420      63.45434      22.64209      21.16609
     5  C(13)             -0.00271      -3.04941      -1.08810      -1.01717
     6  H(1)               0.00199       8.89425       3.17369       2.96680
     7  H(1)              -0.00004      -0.18788      -0.06704      -0.06267
     8  H(1)               0.00039       1.75336       0.62564       0.58486
     9  O(17)              0.01302      -7.89070      -2.81560      -2.63205
    10  O(17)              0.02433     -14.74793      -5.26243      -4.91938
    11  H(1)              -0.02593    -115.92204     -41.36387     -38.66743
    12  C(13)              0.04850      54.51987      19.45405      18.18587
    13  H(1)              -0.00077      -3.42287      -1.22136      -1.14175
    14  H(1)              -0.00022      -1.00169      -0.35743      -0.33413
    15  H(1)              -0.00012      -0.53355      -0.19038      -0.17797
 --------------------------------------------------------
       Center         ----  Spin Dipole Couplings  ----
                      3XX-RR        3YY-RR        3ZZ-RR
 --------------------------------------------------------
     1   Atom        0.687925     -0.359648     -0.328277
     2   Atom        0.022994      0.013202     -0.036196
     3   Atom       -0.006339      0.014738     -0.008399
     4   Atom       -0.006543      0.008445     -0.001902
     5   Atom       -0.001246      0.003362     -0.002116
     6   Atom       -0.001422      0.003094     -0.001673
     7   Atom       -0.000753      0.003805     -0.003053
     8   Atom        0.001762     -0.000071     -0.001690
     9   Atom        0.303958     -0.191496     -0.112463
    10   Atom        1.299633     -0.665941     -0.633693
    11   Atom        0.219707     -0.119334     -0.100373
    12   Atom        0.054907     -0.014255     -0.040652
    13   Atom        0.009761     -0.004412     -0.005349
    14   Atom        0.002046     -0.003829      0.001784
    15   Atom       -0.000084      0.004716     -0.004632
 --------------------------------------------------------
                        XY            XZ            YZ
 --------------------------------------------------------
     1   Atom        0.156903     -0.208501     -0.051224
     2   Atom        0.042605      0.002510      0.040915
     3   Atom       -0.007574     -0.017151      0.044283
     4   Atom        0.001917      0.000422      0.013231
     5   Atom       -0.006132      0.000040     -0.003545
     6   Atom       -0.003787      0.001200     -0.005947
     7   Atom       -0.003279      0.000300     -0.001116
     8   Atom       -0.004690      0.003356     -0.002915
     9   Atom       -0.014876     -0.146537     -0.024241
    10   Atom        0.388334     -0.471044     -0.084860
    11   Atom        0.004819     -0.087233     -0.001232
    12   Atom        0.049224      0.005463      0.005594
    13   Atom        0.001227     -0.004707      0.002597
    14   Atom        0.003769      0.004990      0.000822
    15   Atom        0.004447      0.000451     -0.002893
 --------------------------------------------------------


 ---------------------------------------------------------------------------------
              Anisotropic Spin Dipole Couplings in Principal Axis System
 ---------------------------------------------------------------------------------

       Atom             a.u.   MegaHertz   Gauss  10(-4) cm-1        Axes

              Baa    -0.3975   -53.347   -19.035   -17.795 -0.0048  0.8109  0.5852
     1 C(13)  Bbb    -0.3556   -47.722   -17.028   -15.918  0.2425 -0.5668  0.7874
              Bcc     0.7532   101.069    36.064    33.713  0.9701  0.1457 -0.1939
 
              Baa    -0.0641    -8.607    -3.071    -2.871  0.2493 -0.5566  0.7925
     2 C(13)  Bbb    -0.0056    -0.747    -0.267    -0.249  0.7142 -0.4470 -0.5386
              Bcc     0.0697     9.354     3.338     3.120  0.6541  0.7003  0.2860
 
              Baa    -0.0448   -23.928    -8.538    -7.982  0.2434 -0.5584  0.7930
     3 H(1)   Bbb    -0.0087    -4.637    -1.655    -1.547  0.9320  0.3612 -0.0317
              Bcc     0.0535    28.565    10.193     9.528 -0.2687  0.7468  0.6084
 
              Baa    -0.0111    -5.899    -2.105    -1.968  0.1644 -0.5648  0.8087
     4 H(1)   Bbb    -0.0066    -3.499    -1.249    -1.167  0.9835  0.0313 -0.1781
              Bcc     0.0176     9.399     3.354     3.135  0.0752  0.8246  0.5607
 
              Baa    -0.0065    -0.876    -0.313    -0.292  0.6710  0.5811  0.4606
     5 C(13)  Bbb    -0.0019    -0.258    -0.092    -0.086 -0.5336 -0.0530  0.8441
              Bcc     0.0084     1.134     0.404     0.378 -0.5148  0.8121 -0.2745
 
              Baa    -0.0061    -3.231    -1.153    -1.078  0.3030  0.6043  0.7369
     6 H(1)   Bbb    -0.0025    -1.347    -0.481    -0.449  0.8830  0.1129 -0.4556
              Bcc     0.0086     4.579     1.634     1.527 -0.3585  0.7887 -0.4994
 
              Baa    -0.0033    -1.748    -0.624    -0.583  0.2049  0.2443  0.9478
     7 H(1)   Bbb    -0.0024    -1.275    -0.455    -0.425  0.8661  0.4058 -0.2919
              Bcc     0.0057     3.023     1.079     1.008 -0.4560  0.8807 -0.1284
 
              Baa    -0.0040    -2.129    -0.760    -0.710  0.4114  0.8073  0.4232
     8 H(1)   Bbb    -0.0037    -1.992    -0.711    -0.664 -0.5894 -0.1186  0.7991
              Bcc     0.0077     4.120     1.470     1.374  0.6953 -0.5781  0.4270
 
              Baa    -0.2073    15.000     5.353     5.004  0.1596  0.8688  0.4687
     9 O(17)  Bbb    -0.1431    10.357     3.696     3.455  0.2557 -0.4949  0.8304
              Bcc     0.3504   -25.358    -9.048    -8.458  0.9535 -0.0127 -0.3012
 
              Baa    -0.7457    53.956    19.253    17.998  0.2858 -0.5813  0.7618
    10 O(17)  Bbb    -0.7362    53.270    19.008    17.769 -0.0104  0.7931  0.6091
              Bcc     1.4819  -107.226   -38.261   -35.767  0.9582  0.1820 -0.2207
 
              Baa    -0.1226   -65.415   -23.342   -21.820  0.2469  0.0013  0.9690
    11 H(1)   Bbb    -0.1194   -63.707   -22.732   -21.250 -0.0136  0.9999  0.0022
              Bcc     0.2420   129.123    46.074    43.071  0.9689  0.0138 -0.2469
 
              Baa    -0.0430    -5.769    -2.058    -1.924  0.2396 -0.5643  0.7900
    12 C(13)  Bbb    -0.0379    -5.092    -1.817    -1.699 -0.3989  0.6847  0.6100
              Bcc     0.0809    10.861     3.875     3.623  0.8851  0.4613  0.0610
 
              Baa    -0.0086    -4.595    -1.640    -1.533  0.2404 -0.5603  0.7926
    13 H(1)   Bbb    -0.0025    -1.338    -0.478    -0.446  0.1269  0.8277  0.5466
              Bcc     0.0111     5.934     2.117     1.979  0.9623  0.0308 -0.2701
 
              Baa    -0.0061    -3.231    -1.153    -1.078 -0.5323  0.8075  0.2542
    14 H(1)   Bbb    -0.0018    -0.960    -0.343    -0.320 -0.4399 -0.5204  0.7319
              Bcc     0.0079     4.191     1.495     1.398  0.7233  0.2778  0.6322
 
              Baa    -0.0061    -3.234    -1.154    -1.079 -0.3425  0.3728  0.8624
    15 H(1)   Bbb    -0.0017    -0.922    -0.329    -0.308  0.8103 -0.3473  0.4719
              Bcc     0.0078     4.156     1.483     1.386  0.4755  0.8604 -0.1832
 

 ---------------------------------------------------------------------------------

 Calling FoFJK, ICntrl=  10100127 FMM=F ISym2X=0 I1Cent= 0 IOpClX= 1 NMat=1 NMatS=1 NMatT=0.
 -------------------------------------------------------------------
 Center     Atomic                   Forces (Hartrees/Bohr)
 Number     Number              X              Y              Z
 -------------------------------------------------------------------
      1        6          -0.000003231   -0.000003194   -0.000002274
      2        6          -0.000000971    0.000002365    0.000000287
      3        1           0.000001033   -0.000000414    0.000000232
      4        1          -0.000000992    0.000000247    0.000000246
      5        6          -0.000000429    0.000001310   -0.000000631
      6        1           0.000001767   -0.000000137    0.000000124
      7        1           0.000000045   -0.000000270    0.000000234
      8        1           0.000000140   -0.000000167   -0.000000041
      9        8           0.000001751    0.000014038    0.000008142
     10        8          -0.000004605   -0.000017029   -0.000007733
     11        1           0.000005719    0.000002210    0.000001720
     12        6          -0.000000177    0.000000476    0.000000277
     13        1          -0.000000020    0.000000041   -0.000000088
     14        1          -0.000000174    0.000000033   -0.000000426
     15        1           0.000000144    0.000000493   -0.000000067
 -------------------------------------------------------------------
 Cartesian Forces:  Max     0.000017029 RMS     0.000003998
 FormGI is forming the generalized inverse of G from B-inverse, IUseBI=4.

 GradGradGradGradGradGradGradGradGradGradGradGradGradGradGradGradGradGrad
 Berny optimization.
 Internal  Forces:  Max     0.000015607 RMS     0.000004185
 Search for a saddle point.
 Step number   1 out of a maximum of  100 on scan point     1 out of    37
 All quantities printed in internal units (Hartrees-Bohrs-Radians)
 Swapping is turned off.
 Second derivative matrix not updated -- analytic derivatives used.
 ITU=  0
     Eigenvalues ---   -0.05097   0.00216   0.00699   0.01177   0.01600
     Eigenvalues ---    0.01766   0.02650   0.03690   0.04584   0.04925
     Eigenvalues ---    0.05630   0.05821   0.08091   0.08481   0.08577
     Eigenvalues ---    0.10911   0.12196   0.12659   0.13183   0.14165
     Eigenvalues ---    0.16424   0.16595   0.18333   0.19353   0.21764
     Eigenvalues ---    0.27618   0.30426   0.32316   0.33597   0.33619
     Eigenvalues ---    0.34157   0.34427   0.34769   0.34945   0.35635
     Eigenvalues ---    0.36358   0.40725   0.656781000.000001000.00000
     Eigenvalues --- 1000.000001000.000001000.000001000.000001000.00000
     Eigenvalues --- 1000.000001000.000001000.000001000.000001000.00000
     Eigenvalues --- 1000.00000
 Eigenvectors required to have negative eigenvalues:
                          R3        R11       A1        R10       A2
   1                    0.81033  -0.52566   0.14609   0.13646  -0.10012
                          A14       D15       A3        A21       A13
   1                   -0.07262  -0.06131  -0.04597   0.03425  -0.03300
 RFO step:  Lambda0=1.497716534D-11 Lambda= 0.00000000D+00.
 Linear search not attempted -- option 19 set.
 Iteration  1 RMS(Cart)=  0.00046099 RMS(Int)=  0.00000004
 Iteration  2 RMS(Cart)=  0.00000008 RMS(Int)=  0.00000000
 Iteration  1 RMS(Cart)=  0.00000000 RMS(Int)=  0.00000000
 Variable       Old X    -DE/DX   Delta X   Delta X   Delta X     New X
                                 (Linear)    (Quad)   (Total)
    R1        2.47769  -0.00000   0.00000  -0.00000  -0.00000   2.47769
    R2        2.04138  -0.00000   0.00000   0.00000   0.00000   2.04138
    R3        2.72857   0.00000   0.00000  -0.00001  -0.00001   2.72855
    R4        2.05422  -0.00000   0.00000  -0.00000  -0.00000   2.05422
    R5        2.84669  -0.00000   0.00000  -0.00000  -0.00000   2.84669
    R6        2.06167  -0.00000   0.00000  -0.00000  -0.00000   2.06167
    R7        2.05662   0.00000   0.00000  -0.00000  -0.00000   2.05662
    R8        2.05708   0.00000   0.00000   0.00000   0.00000   2.05708
    R9        2.68432  -0.00000   0.00000  -0.00000  -0.00000   2.68431
   R10        2.67767  -0.00002   0.00000  -0.00007  -0.00007   2.67760
   R11        2.07603  -0.00000   0.00000  -0.00000  -0.00000   2.07603
   R12        2.05450  -0.00000   0.00000  -0.00000  -0.00000   2.05450
   R13        2.06018   0.00000   0.00000   0.00000   0.00000   2.06018
   R14        2.06037  -0.00000   0.00000  -0.00000  -0.00000   2.06037
    A1        2.32823  -0.00000   0.00000  -0.00002  -0.00002   2.32821
    A2        1.95762   0.00001   0.00000   0.00008   0.00008   1.95769
    A3        1.99733  -0.00000   0.00000  -0.00006  -0.00006   1.99727
    A4        2.06210   0.00000   0.00000   0.00001   0.00001   2.06211
    A5        2.18368  -0.00000   0.00000  -0.00001  -0.00001   2.18367
    A6        2.03740   0.00000   0.00000  -0.00000  -0.00000   2.03740
    A7        1.92077  -0.00000   0.00000  -0.00000  -0.00000   1.92077
    A8        1.91983  -0.00000   0.00000  -0.00001  -0.00001   1.91982
    A9        1.93268   0.00000   0.00000   0.00001   0.00001   1.93269
   A10        1.92347  -0.00000   0.00000  -0.00000  -0.00000   1.92347
   A11        1.83555  -0.00000   0.00000   0.00000   0.00000   1.83555
   A12        1.93013  -0.00000   0.00000  -0.00000  -0.00000   1.93013
   A13        1.87345   0.00000   0.00000   0.00001   0.00001   1.87347
   A14        1.80197   0.00001   0.00000   0.00005   0.00005   1.80202
   A15        1.94731   0.00000   0.00000  -0.00000  -0.00000   1.94731
   A16        1.92292  -0.00000   0.00000  -0.00000  -0.00000   1.92292
   A17        1.92533  -0.00000   0.00000   0.00000   0.00000   1.92533
   A18        1.89613  -0.00000   0.00000  -0.00000  -0.00000   1.89612
   A19        1.89642   0.00000   0.00000   0.00000   0.00000   1.89642
   A20        1.87390   0.00000   0.00000   0.00000   0.00000   1.87390
   A21        3.04731   0.00001   0.00000   0.00027   0.00027   3.04758
   A22        3.03742   0.00000   0.00000  -0.00010  -0.00010   3.03733
    D1        3.13879  -0.00000   0.00000  -0.00010  -0.00010   3.13869
    D2        0.00154  -0.00000   0.00000  -0.00010  -0.00010   0.00144
    D3        0.00213   0.00000   0.00000   0.00012   0.00012   0.00225
    D4       -3.13512   0.00000   0.00000   0.00012   0.00012  -3.13500
    D5        2.82477  -0.00001   0.00000   0.00000   0.00000   2.82477
    D6       -0.00494  -0.00000   0.00000  -0.00002  -0.00002  -0.00495
    D7        2.10272  -0.00000   0.00000  -0.00002  -0.00002   2.10270
    D8       -2.11460  -0.00000   0.00000  -0.00002  -0.00002  -2.11462
    D9        3.14094   0.00000   0.00000  -0.00002  -0.00002   3.14093
   D10       -1.03459   0.00000   0.00000  -0.00002  -0.00002  -1.03461
   D11        1.03128   0.00000   0.00000  -0.00002  -0.00002   1.03126
   D12        1.13259  -0.00000   0.00000  -0.00005  -0.00005   1.13254
   D13       -3.07631   0.00000   0.00000  -0.00005  -0.00005  -3.07636
   D14       -1.00013  -0.00000   0.00000  -0.00005  -0.00005  -1.00018
   D15       -1.60065  -0.00001   0.00000  -0.00008  -0.00008  -1.60072
         Item               Value     Threshold  Converged?
 Maximum Force            0.000016     0.000450     YES
 RMS     Force            0.000004     0.000300     YES
 Maximum Displacement     0.001331     0.001800     YES
 RMS     Displacement     0.000461     0.001200     YES
 Predicted change in Energy=-4.018647D-09
 Optimization completed.
    -- Stationary point found.
                           ----------------------------
                           !   Optimized Parameters   !
                           ! (Angstroms and Degrees)  !
 --------------------------                            --------------------------
 ! Name  Definition              Value          Derivative Info.                !
 --------------------------------------------------------------------------------
 ! R1    R(1,2)                  1.3111         -DE/DX =    0.0                 !
 ! R2    R(1,3)                  1.0803         -DE/DX =    0.0                 !
 ! R3    R(1,11)                 1.4439         -DE/DX =    0.0                 !
 ! R4    R(2,4)                  1.087          -DE/DX =    0.0                 !
 ! R5    R(2,12)                 1.5064         -DE/DX =    0.0                 !
 ! R6    R(5,6)                  1.091          -DE/DX =    0.0                 !
 ! R7    R(5,7)                  1.0883         -DE/DX =    0.0                 !
 ! R8    R(5,8)                  1.0886         -DE/DX =    0.0                 !
 ! R9    R(5,9)                  1.4205         -DE/DX =    0.0                 !
 ! R10   R(9,10)                 1.417          -DE/DX =    0.0                 !
 ! R11   R(10,11)                1.0986         -DE/DX =    0.0                 !
 ! R12   R(12,13)                1.0872         -DE/DX =    0.0                 !
 ! R13   R(12,14)                1.0902         -DE/DX =    0.0                 !
 ! R14   R(12,15)                1.0903         -DE/DX =    0.0                 !
 ! A1    A(2,1,3)              133.3975         -DE/DX =    0.0                 !
 ! A2    A(2,1,11)             112.1633         -DE/DX =    0.0                 !
 ! A3    A(3,1,11)             114.4387         -DE/DX =    0.0                 !
 ! A4    A(1,2,4)              118.1496         -DE/DX =    0.0                 !
 ! A5    A(1,2,12)             125.1154         -DE/DX =    0.0                 !
 ! A6    A(4,2,12)             116.7346         -DE/DX =    0.0                 !
 ! A7    A(6,5,7)              110.0519         -DE/DX =    0.0                 !
 ! A8    A(6,5,8)              109.9981         -DE/DX =    0.0                 !
 ! A9    A(6,5,9)              110.7343         -DE/DX =    0.0                 !
 ! A10   A(7,5,8)              110.2068         -DE/DX =    0.0                 !
 ! A11   A(7,5,9)              105.1693         -DE/DX =    0.0                 !
 ! A12   A(8,5,9)              110.5882         -DE/DX =    0.0                 !
 ! A13   A(5,9,10)             107.3409         -DE/DX =    0.0                 !
 ! A14   A(9,10,11)            103.2453         -DE/DX =    0.0                 !
 ! A15   A(2,12,13)            111.5726         -DE/DX =    0.0                 !
 ! A16   A(2,12,14)            110.1753         -DE/DX =    0.0                 !
 ! A17   A(2,12,15)            110.3131         -DE/DX =    0.0                 !
 ! A18   A(13,12,14)           108.64           -DE/DX =    0.0                 !
 ! A19   A(13,12,15)           108.6569         -DE/DX =    0.0                 !
 ! A20   A(14,12,15)           107.3663         -DE/DX =    0.0                 !
 ! A21   L(1,11,10,6,-1)       174.5982         -DE/DX =    0.0                 !
 ! A22   L(1,11,10,6,-2)       174.0314         -DE/DX =    0.0                 !
 ! D1    D(3,1,2,4)            179.8395         -DE/DX =    0.0                 !
 ! D2    D(3,1,2,12)             0.0883         -DE/DX =    0.0                 !
 ! D3    D(11,1,2,4)             0.1219         -DE/DX =    0.0                 !
 ! D4    D(11,1,2,12)         -179.6292         -DE/DX =    0.0                 !
 ! D5    D(3,1,10,9)           161.8472         -DE/DX =    0.0                 !
 ! D6    D(1,2,12,13)           -0.2829         -DE/DX =    0.0                 !
 ! D7    D(1,2,12,14)          120.4769         -DE/DX =    0.0                 !
 ! D8    D(1,2,12,15)         -121.1577         -DE/DX =    0.0                 !
 ! D9    D(4,2,12,13)          179.9629         -DE/DX =    0.0                 !
 ! D10   D(4,2,12,14)          -59.2774         -DE/DX =    0.0                 !
 ! D11   D(4,2,12,15)           59.088          -DE/DX =    0.0                 !
 ! D12   D(6,5,9,10)            64.8928         -DE/DX =    0.0                 !
 ! D13   D(7,5,9,10)          -176.2596         -DE/DX =    0.0                 !
 ! D14   D(8,5,9,10)           -57.3034         -DE/DX =    0.0                 !
 ! D15   D(5,9,10,11)          -91.7104         -DE/DX =    0.0                 !
 --------------------------------------------------------------------------------
 Iteration  1 RMS(Cart)=  0.10740278 RMS(Int)=  0.00405769
 Iteration  2 RMS(Cart)=  0.00641993 RMS(Int)=  0.00001076
 Iteration  3 RMS(Cart)=  0.00002480 RMS(Int)=  0.00000000
 Iteration  4 RMS(Cart)=  0.00000000 RMS(Int)=  0.00000000
 Iteration  1 RMS(Cart)=  0.00000000 RMS(Int)=  0.00000000
 GradGradGradGradGradGradGradGradGradGradGradGradGradGradGradGradGradGrad

                          Input orientation:                          
 ---------------------------------------------------------------------
 Center     Atomic      Atomic             Coordinates (Angstroms)
 Number     Number       Type             X           Y           Z
 ---------------------------------------------------------------------
      1          6           0       -0.997755    1.006496    0.403904
      2          6           0       -1.463647   -0.101285   -0.120355
      3          1           0       -1.450744    1.807987    0.969023
      4          1           0       -0.771279   -0.746222   -0.655474
      5          6           0        2.044876   -0.998936    0.428917
      6          1           0        1.228742   -1.098213    1.146082
      7          1           0        2.246891   -1.959183   -0.041771
      8          1           0        2.938186   -0.630565    0.930182
      9          8           0        1.676541   -0.133407   -0.635483
     10          8           0        1.486817    1.157738   -0.083551
     11          1           0        0.415388    1.173020    0.158732
     12          6           0       -2.897048   -0.558718   -0.047050
     13          1           0       -3.513737    0.145851    0.505467
     14          1           0       -3.308240   -0.669279   -1.050661
     15          1           0       -2.959169   -1.532607    0.439200
 ---------------------------------------------------------------------
                    Distance matrix (angstroms):
                    1          2          3          4          5
     1  C    0.000000
     2  C    1.311137   0.000000
     3  H    1.080253   2.198234   0.000000
     4  H    2.060483   1.087047   3.102362   0.000000
     5  C    3.644171   3.662952   4.515516   3.028283   0.000000
     6  H    3.152446   3.137944   3.956892   2.714698   1.090988
     7  H    4.418326   4.150428   5.374549   3.310174   1.088316
     8  H    4.295179   4.556303   5.021030   4.035816   1.088561
     9  O    3.087323   3.182322   4.015391   2.523443   1.420478
    10  O    2.536451   3.208073   3.187475   3.008514   2.285891
    11  H    1.443888   2.287470   2.131244   2.398875   2.728667
    12  C    2.502113   1.506405   2.953895   2.219061   4.984271
    13  H    2.661050   2.157683   2.689521   3.108803   5.675788
    14  H    3.203486   2.142571   3.696792   2.568709   5.563603
    15  H    3.208650   2.144381   3.703462   2.569742   5.032432
                    6          7          8          9         10
     6  H    0.000000
     7  H    1.785747   0.000000
     8  H    1.785359   1.785443   0.000000
     9  O    2.074933   2.002810   2.071284   0.000000
    10  O    2.582230   3.208528   2.516377   1.416926   0.000000
    11  H    2.606704   3.633910   3.195710   1.981928   1.098587
    12  C    4.328599   5.331176   5.916934   4.630860   4.708060
    13  H    4.944612   6.157554   6.512335   5.321535   5.135795
    14  H    5.059039   5.791476   6.553097   5.030664   5.221672
    15  H    4.269307   5.245604   5.986112   4.960092   5.222836
                   11         12         13         14         15
    11  H    0.000000
    12  C    3.743461   0.000000
    13  H    4.075945   1.087197   0.000000
    14  H    4.326905   1.090201   1.768672   0.000000
    15  H    4.334365   1.090302   1.768943   1.756950   0.000000
 Symmetry turned off by external request.
 Stoichiometry    C4H9O2(2)
 Framework group  C1[X(C4H9O2)]
 Deg. of freedom    39
 Full point group                 C1      NOp   1
 Rotational constants (GHZ):           6.4074395           1.5077275           1.3224532
 Standard basis: CC-pVTZ (5D, 7F)
   306 basis functions,   465 primitive gaussians,   345 cartesian basis functions
    25 alpha electrons       24 beta electrons
       nuclear repulsion energy       232.6218594452 Hartrees.
 NAtoms=   15 NActive=   15 NUniq=   15 SFac= 1.00D+00 NAtFMM=   60 NAOKFM=F Big=F
 Integral buffers will be    131072 words long.
 Raffenetti 2 integral format.
 Two-electron integral symmetry is turned off.
 Nuclear repulsion after empirical dispersion term =      232.6147018868 Hartrees.
 One-electron integrals computed using PRISM.
 NBasis=   306 RedAO= T EigKep=  4.41D-04  NBF=   306
 NBsUse=   306 1.00D-06 EigRej= -1.00D+00 NBFU=   306
 Initial guess from the checkpoint file:  "/localscratch/347858/Gau-15338.chk"
 B after Tr=     0.009697    0.029726    0.024721
         Rot=    0.999921   -0.012362   -0.000022   -0.002083 Ang=  -1.44 deg.
 Initial guess <Sx>= 0.0000 <Sy>= 0.0000 <Sz>= 0.5000 <S**2>= 0.7793 S= 0.5146
 ExpMin= 1.03D-01 ExpMax= 1.53D+04 ExpMxC= 5.22D+02 IAcc=3 IRadAn=         5 AccDes= 0.00D+00
 Harris functional with IExCor=  419 and IRadAn=       5 diagonalized for initial guess.
 HarFok:  IExCor=  419 AccDes= 0.00D+00 IRadAn=         5 IDoV= 1 UseB2=F ITyADJ=14
 ICtDFT=  3500011 ScaDFX=  1.000000  1.000000  1.000000  1.000000
 FoFCou: FMM=F IPFlag=           0 FMFlag=      100000 FMFlg1=           0
         NFxFlg=           0 DoJE=T BraDBF=F KetDBF=T FulRan=T
         wScrn=  0.000000 ICntrl=       500 IOpCl=  0 I1Cent=   200000004 NGrid=           0
         NMat0=    1 NMatS0=      1 NMatT0=    0 NMatD0=    1 NMtDS0=    0 NMtDT0=    0
 Symmetry not used in FoFCou.
 Requested convergence on RMS density matrix=1.00D-08 within 500 cycles.
 Requested convergence on MAX density matrix=1.00D-06.
 Requested convergence on             energy=1.00D-06.
 No special actions if energy rises.
 Integral accuracy reduced to 1.0D-05 until final iterations.
 Initial convergence to 1.0D-05 achieved.  Increase integral accuracy.
 SCF Done:  E(UB2PLYPD3) =  -307.564269251     A.U. after   17 cycles
            NFock= 17  Conv=0.54D-08     -V/T= 2.0043
 <Sx>= 0.0000 <Sy>= 0.0000 <Sz>= 0.5000 <S**2>= 0.7792 S= 0.5145
 <L.S>=  0.00000000000    
 Annihilation of the first spin contaminant:
 S**2 before annihilation     0.7792,   after     0.7506
 DoSCS=T DFT=T ScalE2(SS,OS)=  0.270000  0.270000
 ExpMin= 1.03D-01 ExpMax= 1.53D+04 ExpMxC= 5.22D+02 IAcc=3 IRadAn=         5 AccDes= 0.00D+00
 HarFok:  IExCor=  205 AccDes= 0.00D+00 IRadAn=         5 IDoV=-2 UseB2=F ITyADJ=14
 ICtDFT= 12500011 ScaDFX=  1.000000  1.000000  1.000000  1.000000
 Range of M.O.s used for correlation:     7   306
 NBasis=   306 NAE=    25 NBE=    24 NFC=     6 NFV=     0
 NROrb=    300 NOA=    19 NOB=    18 NVA=   281 NVB=   282

 **** Warning!!: The largest alpha MO coefficient is  0.11488817D+02


 **** Warning!!: The largest beta MO coefficient is  0.11497647D+02

 DoSCS=T DFT=T ScalE2(SS,OS)=  0.270000  0.270000
 Disk-based method using ON**2 memory for 19 occupieds at a time.
 Estimated scratch disk usage=  1337629424 words.
 Actual    scratch disk usage=  1226176752 words.
 JobTyp=2 Pass  1:  I=   7 to  25 NPSUse= 40 ParTrn=T ParDer=T DoDerP=T.
 (rs|ai) integrals will be sorted in core.
 Actual    scratch disk usage=  1226176752 words.
 JobTyp=3 Pass  1:  I=   7 to  24 NPSUse= 40 ParTrn=T ParDer=T DoDerP=T.
 (rs|ai) integrals will be sorted in core.
 Spin components of T(2) and E(2):
     alpha-alpha T2 =       0.6514219408D-01 E2=     -0.4680112744D-01
     alpha-beta  T2 =       0.4001532937D+00 E2=     -0.2900810282D+00
     beta-beta   T2 =       0.6933106719D-01 E2=     -0.4532373755D-01
 (S**2,0)=  0.77916D+00           (S**2,1)=  0.75085D+00
 Scaling Projection term by:   0.270000
 E(PUHF)=      -0.30757044157D+03        E(PMP2)=      -0.30794734213D+03
 E2(B2PLYPD3) =    -0.3822058931D+00 E(B2PLYPD3) =    -0.30794647514379D+03
          IDoAtm=111111111111111
          Differentiating once with respect to electric field.
                with respect to dipole field.
          Differentiating once with respect to nuclear coordinates.
 Keep R1 and R2 ints in memory in canonical form, NReq=2252583484.
          There are     1 degrees of freedom in the 1st order CPHF.  IDoFFX=0 NUNeed=     1.
 LinEq1:  Iter=  0 NonCon=     1 RMS=9.95D-04 Max=7.10D-02 NDo=     1
 AX will form     1 AO Fock derivatives at one time.
 LinEq1:  Iter=  1 NonCon=     1 RMS=3.36D-04 Max=1.40D-02 NDo=     1
 LinEq1:  Iter=  2 NonCon=     1 RMS=2.09D-04 Max=1.05D-02 NDo=     1
 LinEq1:  Iter=  3 NonCon=     1 RMS=1.03D-04 Max=5.03D-03 NDo=     1
 LinEq1:  Iter=  4 NonCon=     1 RMS=7.59D-05 Max=4.33D-03 NDo=     1
 LinEq1:  Iter=  5 NonCon=     1 RMS=3.32D-05 Max=1.26D-03 NDo=     1
 LinEq1:  Iter=  6 NonCon=     1 RMS=2.33D-05 Max=8.39D-04 NDo=     1
 LinEq1:  Iter=  7 NonCon=     1 RMS=8.98D-06 Max=3.05D-04 NDo=     1
 LinEq1:  Iter=  8 NonCon=     1 RMS=6.38D-06 Max=2.26D-04 NDo=     1
 LinEq1:  Iter=  9 NonCon=     1 RMS=2.82D-06 Max=7.79D-05 NDo=     1
 LinEq1:  Iter= 10 NonCon=     1 RMS=1.07D-06 Max=2.50D-05 NDo=     1
 LinEq1:  Iter= 11 NonCon=     1 RMS=4.29D-07 Max=8.82D-06 NDo=     1
 LinEq1:  Iter= 12 NonCon=     1 RMS=1.94D-07 Max=3.40D-06 NDo=     1
 LinEq1:  Iter= 13 NonCon=     1 RMS=9.25D-08 Max=1.95D-06 NDo=     1
 LinEq1:  Iter= 14 NonCon=     1 RMS=2.70D-08 Max=5.05D-07 NDo=     1
 LinEq1:  Iter= 15 NonCon=     1 RMS=7.64D-09 Max=1.37D-07 NDo=     1
 LinEq1:  Iter= 16 NonCon=     1 RMS=2.71D-09 Max=8.10D-08 NDo=     1
 LinEq1:  Iter= 17 NonCon=     1 RMS=1.31D-09 Max=4.84D-08 NDo=     1
 LinEq1:  Iter= 18 NonCon=     1 RMS=4.62D-10 Max=2.36D-08 NDo=     1
 LinEq1:  Iter= 19 NonCon=     1 RMS=1.50D-10 Max=7.09D-09 NDo=     1
 LinEq1:  Iter= 20 NonCon=     1 RMS=5.43D-11 Max=1.82D-09 NDo=     1
 LinEq1:  Iter= 21 NonCon=     0 RMS=1.55D-11 Max=3.28D-10 NDo=     1
 Linear equations converged to 1.000D-10 1.000D-09 after    21 iterations.
 End of Minotr F.D. properties file   721 does not exist.
 End of Minotr F.D. properties file   722 does not exist.
 End of Minotr F.D. properties file   788 does not exist.
 Calling FoFJK, ICntrl=  10002127 FMM=F ISym2X=0 I1Cent= 0 IOpClX= 1 NMat=1 NMatS=1 NMatT=0.
 -------------------------------------------------------------------
 Center     Atomic                   Forces (Hartrees/Bohr)
 Number     Number              X              Y              Z
 -------------------------------------------------------------------
      1        6           0.000134503   -0.000425406    0.000175081
      2        6          -0.000131315    0.000081925    0.000361037
      3        1           0.000065799   -0.000050154    0.000082005
      4        1          -0.000235468    0.000259673   -0.000426972
      5        6           0.000372718   -0.000015013    0.000306680
      6        1           0.000208761    0.000004562    0.000131249
      7        1           0.000042882   -0.000015434   -0.000031331
      8        1          -0.000026826   -0.000052742    0.000006797
      9        8          -0.000270480   -0.000077706    0.000125072
     10        8           0.000148976   -0.000088783   -0.000000037
     11        1          -0.000230724    0.000346087   -0.000520149
     12        6          -0.000071760    0.000041172   -0.000228124
     13        1           0.000021423   -0.000010179   -0.000004796
     14        1          -0.000043856   -0.000013644    0.000002300
     15        1           0.000015367    0.000015643    0.000021187
 -------------------------------------------------------------------
 Cartesian Forces:  Max     0.000520149 RMS     0.000190578

 GradGradGradGradGradGradGradGradGradGradGradGradGradGradGradGradGradGrad
 Berny optimization.
 FormGI is forming the generalized inverse of G from B-inverse, IUseBI=4.
 Internal  Forces:  Max     0.002217209 RMS     0.000511034
 Search for a saddle point.
 Step number   1 out of a maximum of  100 on scan point     2 out of    37
 All quantities printed in internal units (Hartrees-Bohrs-Radians)
 Swapping is turned off.
 Second derivative matrix not updated -- first step.
 ITU=  0
     Eigenvalues ---   -0.05097   0.00216   0.00699   0.01177   0.01600
     Eigenvalues ---    0.01766   0.02650   0.03690   0.04584   0.04925
     Eigenvalues ---    0.05630   0.05821   0.08091   0.08481   0.08577
     Eigenvalues ---    0.10911   0.12196   0.12659   0.13183   0.14165
     Eigenvalues ---    0.16424   0.16595   0.18333   0.19353   0.21764
     Eigenvalues ---    0.27618   0.30426   0.32316   0.33597   0.33619
     Eigenvalues ---    0.34157   0.34427   0.34769   0.34945   0.35635
     Eigenvalues ---    0.36358   0.40725   0.656781000.000001000.00000
     Eigenvalues --- 1000.000001000.000001000.000001000.000001000.00000
     Eigenvalues --- 1000.000001000.000001000.000001000.000001000.00000
     Eigenvalues --- 1000.00000
 Eigenvectors required to have negative eigenvalues:
                          R3        R11       A1        R10       A2
   1                    0.81033  -0.52566   0.14609   0.13646  -0.10012
                          A14       D15       A3        A21       A13
   1                   -0.07262  -0.06131  -0.04597   0.03425  -0.03300
 RFO step:  Lambda0=1.039142734D-09 Lambda=-1.75197662D-04.
 Linear search not attempted -- option 19 set.
 Iteration  1 RMS(Cart)=  0.06436880 RMS(Int)=  0.00098648
 Iteration  2 RMS(Cart)=  0.00131844 RMS(Int)=  0.00006285
 Iteration  3 RMS(Cart)=  0.00000076 RMS(Int)=  0.00006285
 Iteration  1 RMS(Cart)=  0.00000000 RMS(Int)=  0.00000000
 Variable       Old X    -DE/DX   Delta X   Delta X   Delta X     New X
                                 (Linear)    (Quad)   (Total)
    R1        2.47769  -0.00005   0.00000  -0.00017  -0.00017   2.47752
    R2        2.04138  -0.00002   0.00000   0.00010   0.00010   2.04148
    R3        2.72855   0.00025   0.00000  -0.00353  -0.00353   2.72502
    R4        2.05422  -0.00009   0.00000  -0.00038  -0.00038   2.05384
    R5        2.84669   0.00005   0.00000   0.00013   0.00013   2.84682
    R6        2.06167  -0.00008   0.00000  -0.00027  -0.00027   2.06140
    R7        2.05662   0.00003   0.00000   0.00007   0.00007   2.05669
    R8        2.05708  -0.00004   0.00000  -0.00001  -0.00001   2.05708
    R9        2.68431   0.00050   0.00000   0.00082   0.00082   2.68514
   R10        2.67760  -0.00001   0.00000   0.00054   0.00054   2.67814
   R11        2.07603   0.00035   0.00000   0.00095   0.00095   2.07698
   R12        2.05450  -0.00002   0.00000  -0.00003  -0.00003   2.05448
   R13        2.06018   0.00002   0.00000   0.00002   0.00002   2.06020
   R14        2.06037  -0.00001   0.00000  -0.00003  -0.00003   2.06034
    A1        2.32821  -0.00032   0.00000  -0.00144  -0.00170   2.32651
    A2        1.95769   0.00072   0.00000   0.00805   0.00779   1.96548
    A3        1.99727  -0.00041   0.00000  -0.00678  -0.00704   1.99023
    A4        2.06211   0.00008   0.00000   0.00109   0.00108   2.06319
    A5        2.18367   0.00002   0.00000  -0.00043  -0.00043   2.18324
    A6        2.03740  -0.00010   0.00000  -0.00068  -0.00068   2.03672
    A7        1.92077   0.00001   0.00000   0.00062   0.00062   1.92138
    A8        1.91982  -0.00016   0.00000  -0.00099  -0.00099   1.91884
    A9        1.93269   0.00029   0.00000   0.00135   0.00135   1.93404
[...]
     1  C    0.000388  -0.000674  -0.004672  -0.068234   0.164887  -0.059134
     2  C   -0.000164   0.000418   0.000276  -0.001060  -0.002551   0.337149
     3  H   -0.000005  -0.000009   0.000152   0.000998  -0.007078  -0.004226
     4  H   -0.000288   0.000710   0.018045  -0.002001  -0.002379  -0.035993
     5  C    0.394343   0.412980   0.296853  -0.042529   0.003730  -0.000149
     6  H   -0.036662  -0.055581  -0.050492  -0.003227   0.004702  -0.000017
     7  H    0.596163  -0.026441  -0.027276   0.006949  -0.000878  -0.000023
     8  H   -0.026441   0.601601  -0.035831   0.004334   0.000072   0.000002
     9  O   -0.027276  -0.035831   7.955331   0.072565  -0.030173   0.000182
    10  O    0.006949   0.004334   0.072565   8.010457   0.251976   0.000041
    11  H   -0.000878   0.000072  -0.030173   0.251976   0.388067   0.001360
    12  C   -0.000023   0.000002   0.000182   0.000041   0.001360   4.794747
    13  H    0.000000  -0.000000  -0.000013   0.000015  -0.000068   0.409754
    14  H   -0.000001  -0.000000  -0.000015   0.000014  -0.000101   0.409212
    15  H    0.000006  -0.000001   0.000008   0.000007  -0.000035   0.408459
              13         14         15
     1  C    0.000630   0.000962  -0.000378
     2  C   -0.040104  -0.039780  -0.039666
     3  H    0.003082   0.000065   0.000005
     4  H    0.004593  -0.002835  -0.001502
     5  C   -0.000005  -0.000003   0.000047
     6  H    0.000015   0.000019  -0.000103
     7  H    0.000000  -0.000001   0.000006
     8  H   -0.000000  -0.000000  -0.000001
     9  O   -0.000013  -0.000015   0.000008
    10  O    0.000015   0.000014   0.000007
    11  H   -0.000068  -0.000101  -0.000035
    12  C    0.409754   0.409212   0.408459
    13  H    0.576892  -0.027127  -0.027720
    14  H   -0.027127   0.588083  -0.036317
    15  H   -0.027720  -0.036317   0.594110
          Atomic-Atomic Spin Densities.
               1          2          3          4          5          6
     1  C    0.864121  -0.028077   0.003840  -0.004941   0.000495  -0.003676
     2  C   -0.028077  -0.169486  -0.001687   0.007764  -0.000093   0.000069
     3  H    0.003840  -0.001687   0.022863   0.001056  -0.000025   0.000322
     4  H   -0.004941   0.007764   0.001056   0.027901  -0.000329   0.001017
     5  C    0.000495  -0.000093  -0.000025  -0.000329  -0.003809   0.004009
     6  H   -0.003676   0.000069   0.000322   0.001017   0.004009  -0.000294
     7  H    0.000133  -0.000022  -0.000004  -0.000094   0.000301  -0.000656
     8  H    0.000983  -0.000085  -0.000050  -0.000160  -0.002072  -0.000502
     9  O    0.011224  -0.000902  -0.000392  -0.003766  -0.000058  -0.000509
    10  O   -0.082608   0.004412   0.003539   0.002738  -0.001461   0.002860
    11  H    0.045447   0.000397  -0.000710   0.000115   0.000779  -0.002837
    12  C   -0.020337   0.020275  -0.004654  -0.007368   0.000053  -0.000181
    13  H    0.001659  -0.000085   0.000683   0.000265  -0.000000   0.000007
    14  H    0.001325   0.002675   0.000255   0.000877  -0.000001   0.000005
    15  H    0.001389   0.002688   0.000249   0.000702  -0.000011   0.000047
               7          8          9         10         11         12
     1  C    0.000133   0.000983   0.011224  -0.082608   0.045447  -0.020337
     2  C   -0.000022  -0.000085  -0.000902   0.004412   0.000397   0.020275
     3  H   -0.000004  -0.000050  -0.000392   0.003539  -0.000710  -0.004654
     4  H   -0.000094  -0.000160  -0.003766   0.002738   0.000115  -0.007368
     5  C    0.000301  -0.002072  -0.000058  -0.001461   0.000779   0.000053
     6  H   -0.000656  -0.000502  -0.000509   0.002860  -0.002837  -0.000181
     7  H   -0.001209   0.000903   0.000152  -0.000184   0.000096   0.000006
     8  H    0.000903   0.002059  -0.000263  -0.000412   0.001128   0.000010
     9  O    0.000152  -0.000263   0.036300  -0.031552   0.007989   0.000219
    10  O   -0.000184  -0.000412  -0.031552   0.456457  -0.030236  -0.000461
    11  H    0.000096   0.001128   0.007989  -0.030236  -0.094549   0.000390
    12  C    0.000006   0.000010   0.000219  -0.000461   0.000390   0.083432
    13  H   -0.000000  -0.000000  -0.000005   0.000018  -0.000059  -0.002449
    14  H   -0.000000  -0.000000  -0.000012   0.000019  -0.000025  -0.004314
    15  H   -0.000002  -0.000001  -0.000019   0.000019  -0.000020  -0.004114
              13         14         15
     1  C    0.001659   0.001325   0.001389
     2  C   -0.000085   0.002675   0.002688
     3  H    0.000683   0.000255   0.000249
     4  H    0.000265   0.000877   0.000702
     5  C   -0.000000  -0.000001  -0.000011
     6  H    0.000007   0.000005   0.000047
     7  H   -0.000000  -0.000000  -0.000002
     8  H   -0.000000  -0.000000  -0.000001
     9  O   -0.000005  -0.000012  -0.000019
    10  O    0.000018   0.000019   0.000019
    11  H   -0.000059  -0.000025  -0.000020
    12  C   -0.002449  -0.004314  -0.004114
    13  H   -0.004778   0.001100   0.001070
    14  H    0.001100  -0.007921   0.003084
    15  H    0.001070   0.003084  -0.007832
 Mulliken charges and spin densities:
               1          2
     1  C   -0.271454   0.790978
     2  C   -0.106812  -0.162156
     3  H    0.156004   0.025285
     4  H    0.169563   0.025777
     5  C   -0.065969  -0.002223
     6  H    0.073543  -0.000320
     7  H    0.093890  -0.000581
     8  H    0.098421   0.001537
     9  O   -0.194941   0.018403
    10  O   -0.230307   0.323149
    11  H    0.228470  -0.072096
    12  C   -0.261364   0.060507
    13  H    0.100057  -0.002574
    14  H    0.107824  -0.002933
    15  H    0.103078  -0.002753
 Sum of Mulliken charges =  -0.00000   1.00000
 Mulliken charges and spin densities with hydrogens summed into heavy atoms:
               1          2
     1  C   -0.115450   0.816263
     2  C    0.062750  -0.136379
     5  C    0.199884  -0.001587
     9  O   -0.194941   0.018403
    10  O   -0.001838   0.251053
    12  C    0.049595   0.052246
 Electronic spatial extent (au):  <R**2>=            984.9020
 Charge=             -0.0000 electrons
 Dipole moment (field-independent basis, Debye):
    X=             -1.8302    Y=              1.5381    Z=             -1.9331  Tot=              3.0745
 Quadrupole moment (field-independent basis, Debye-Ang):
   XX=            -34.2105   YY=            -37.9599   ZZ=            -41.3375
   XY=              3.7580   XZ=             -2.6173   YZ=              3.2261
 Traceless Quadrupole moment (field-independent basis, Debye-Ang):
   XX=              3.6254   YY=             -0.1239   ZZ=             -3.5015
   XY=              3.7580   XZ=             -2.6173   YZ=              3.2261
 Octapole moment (field-independent basis, Debye-Ang**2):
  XXX=             14.6009  YYY=             46.2257  ZZZ=            -41.9251  XYY=             -0.2885
  XXY=             21.4555  XXZ=            -17.7723  XZZ=              0.7299  YZZ=             18.2122
  YYZ=            -17.8955  XYZ=              0.2984
 Hexadecapole moment (field-independent basis, Debye-Ang**3):
 XXXX=           -878.3541 YYYY=           -233.0610 ZZZZ=           -132.6065 XXXY=             19.1093
 XXXZ=            -42.6695 YYYX=             26.7916 YYYZ=             35.2942 ZZZX=            -42.6028
 ZZZY=             27.6735 XXYY=           -195.0985 XXZZ=           -179.1142 YYZZ=            -63.9305
 XXYZ=             18.6236 YYXZ=             -8.3378 ZZXY=              5.7383
 N-N= 2.320331893844D+02 E-N=-1.184321682086D+03  KE= 3.062361063770D+02
                          Isotropic Fermi Contact Couplings
        Atom                 a.u.       MegaHertz       Gauss      10(-4) cm-1
     1  C(13)              0.19505     219.27568      78.24302      73.14250
     2  C(13)              0.00416       4.67476       1.66807       1.55933
     3  H(1)               0.01315      58.75976      20.96694      19.60014
     4  H(1)               0.01419      63.44443      22.63855      21.16278
     5  C(13)             -0.00271      -3.04902      -1.08796      -1.01704
     6  H(1)               0.00199       8.89503       3.17397       2.96706
     7  H(1)              -0.00004      -0.18754      -0.06692      -0.06256
     8  H(1)               0.00039       1.75340       0.62566       0.58487
     9  O(17)              0.01301      -7.88957      -2.81519      -2.63168
    10  O(17)              0.02433     -14.74749      -5.26227      -4.91923
    11  H(1)              -0.02594    -115.93176     -41.36734     -38.67067
    12  C(13)              0.04849      54.51649      19.45284      18.18474
    13  H(1)              -0.00077      -3.42138      -1.22083      -1.14125
    14  H(1)              -0.00023      -1.00720      -0.35939      -0.33597
    15  H(1)              -0.00012      -0.52556      -0.18753      -0.17531
 --------------------------------------------------------
       Center         ----  Spin Dipole Couplings  ----
                      3XX-RR        3YY-RR        3ZZ-RR
 --------------------------------------------------------
     1   Atom        0.606187     -0.351510     -0.254678
     2   Atom        0.015997      0.027369     -0.043366
     3   Atom       -0.009361      0.023623     -0.014262
     4   Atom       -0.006810      0.011603     -0.004793
     5   Atom       -0.000270      0.001686     -0.001417
     6   Atom       -0.000507      0.001164     -0.000657
     7   Atom       -0.000193      0.003033     -0.002840
     8   Atom        0.003138     -0.001296     -0.001842
     9   Atom        0.269088     -0.198194     -0.070894
    10   Atom        1.115351     -0.637685     -0.477666
    11   Atom        0.195758     -0.118780     -0.076978
    12   Atom        0.047387     -0.007051     -0.040337
    13   Atom        0.008327     -0.003682     -0.004645
    14   Atom        0.002484     -0.003009      0.000526
    15   Atom       -0.000617      0.004431     -0.003813
 --------------------------------------------------------
                        XY            XZ            YZ
 --------------------------------------------------------
     1   Atom       -0.186401      0.326570     -0.081109
     2   Atom       -0.045844      0.011527      0.028742
     3   Atom        0.006928      0.019586      0.040255
     4   Atom       -0.002147      0.000301      0.011450
     5   Atom        0.006676     -0.000917     -0.003311
     6   Atom        0.004449     -0.002064     -0.005767
     7   Atom        0.003638     -0.000522     -0.001452
     8   Atom        0.004354     -0.003606     -0.002306
     9   Atom        0.003956      0.185072     -0.022697
    10   Atom       -0.433433      0.702909     -0.159533
    11   Atom       -0.014564      0.120438     -0.005954
    12   Atom       -0.053213      0.010606     -0.003698
    13   Atom       -0.001707      0.006572      0.001936
    14   Atom       -0.004807     -0.004301      0.001198
    15   Atom       -0.003728      0.000203     -0.004357
 --------------------------------------------------------


 ---------------------------------------------------------------------------------
              Anisotropic Spin Dipole Couplings in Principal Axis System
 ---------------------------------------------------------------------------------

       Atom             a.u.   MegaHertz   Gauss  10(-4) cm-1        Axes

              Baa    -0.3976   -53.348   -19.036   -17.795  0.0034  0.8730  0.4877
     1 C(13)  Bbb    -0.3556   -47.723   -17.029   -15.919 -0.3641 -0.4531  0.8137
              Bcc     0.7532   101.071    36.065    33.714  0.9314 -0.1804  0.3163
 
              Baa    -0.0641    -8.608    -3.072    -2.871 -0.3704 -0.4421  0.8169
     2 C(13)  Bbb    -0.0056    -0.748    -0.267    -0.249  0.6853  0.4637  0.5616
              Bcc     0.0697     9.356     3.338     3.121 -0.6271  0.7678  0.1312
 
              Baa    -0.0448   -23.929    -8.538    -7.982 -0.3649 -0.4442  0.8183
     3 H(1)   Bbb    -0.0087    -4.637    -1.655    -1.547  0.8946 -0.4109  0.1759
              Bcc     0.0535    28.566    10.193     9.529  0.2581  0.7962  0.5473
 
              Baa    -0.0111    -5.898    -2.105    -1.967 -0.2891 -0.4535  0.8431
     4 H(1)   Bbb    -0.0066    -3.501    -1.249    -1.168  0.9546 -0.0698  0.2897
              Bcc     0.0176     9.399     3.354     3.135 -0.0725  0.8885  0.4530
 
              Baa    -0.0065    -0.876    -0.313    -0.292 -0.6705  0.6718  0.3149
     5 C(13)  Bbb    -0.0019    -0.258    -0.092    -0.086  0.4376  0.0153  0.8990
              Bcc     0.0084     1.134     0.404     0.378  0.5991  0.7406 -0.3043
 
              Baa    -0.0061    -3.231    -1.153    -1.078 -0.3325  0.7051  0.6263
     6 H(1)   Bbb    -0.0025    -1.347    -0.481    -0.449  0.8201 -0.1117  0.5612
              Bcc     0.0086     4.578     1.633     1.527  0.4657  0.7002 -0.5412
 
              Baa    -0.0033    -1.748    -0.624    -0.583 -0.2837  0.3675  0.8857
     7 H(1)   Bbb    -0.0024    -1.275    -0.455    -0.425  0.7987 -0.4206  0.4304
              Bcc     0.0057     3.023     1.079     1.008  0.5307  0.8295 -0.1742
 
              Baa    -0.0040    -2.128    -0.759    -0.710 -0.3926  0.8756  0.2813
     8 H(1)   Bbb    -0.0037    -1.992    -0.711    -0.664  0.4925 -0.0581  0.8684
              Bcc     0.0077     4.120     1.470     1.374  0.7767  0.4795 -0.4084
 
              Baa    -0.2073    15.002     5.353     5.004 -0.1428  0.9266  0.3479
     9 O(17)  Bbb    -0.1431    10.356     3.695     3.454 -0.3765 -0.3760  0.8467
              Bcc     0.3504   -25.358    -9.048    -8.459  0.9153 -0.0101  0.4026
 
              Baa    -0.7456    53.954    19.252    17.997 -0.4056 -0.4677  0.7854
    10 O(17)  Bbb    -0.7361    53.267    19.007    17.768  0.0057  0.8579  0.5138
              Bcc     1.4818  -107.221   -38.259   -35.765  0.9141 -0.2129  0.3452
 
              Baa    -0.1226   -65.415   -23.342   -21.820 -0.3456  0.1308  0.9292
    11 H(1)   Bbb    -0.1194   -63.712   -22.734   -21.252  0.0867  0.9905 -0.1072
              Bcc     0.2420   129.127    46.076    43.072  0.9344 -0.0436  0.3536
 
              Baa    -0.0430    -5.769    -2.058    -1.924 -0.3614 -0.4511  0.8161
    12 C(13)  Bbb    -0.0379    -5.092    -1.817    -1.698  0.3822  0.7266  0.5709
              Bcc     0.0809    10.860     3.875     3.623  0.8505 -0.5182  0.0902
 
              Baa    -0.0086    -4.595    -1.640    -1.533 -0.3624 -0.4466  0.8181
    13 H(1)   Bbb    -0.0025    -1.339    -0.478    -0.447 -0.1222  0.8929  0.4333
              Bcc     0.0111     5.934     2.117     1.979  0.9240 -0.0571  0.3781
 
              Baa    -0.0061    -3.231    -1.153    -1.078  0.5607  0.7980  0.2212
    14 H(1)   Bbb    -0.0018    -0.960    -0.343    -0.320  0.3216 -0.4559  0.8299
              Bcc     0.0079     4.191     1.495     1.398  0.7631 -0.3942 -0.5122
 
              Baa    -0.0061    -3.234    -1.154    -1.079  0.2769  0.4508  0.8486
    15 H(1)   Bbb    -0.0017    -0.922    -0.329    -0.307  0.8785  0.2391 -0.4137
              Bcc     0.0078     4.156     1.483     1.386 -0.3894  0.8600 -0.3298
 

 ---------------------------------------------------------------------------------

 1\1\GINC-N21\Scan\UB2PLYPD3-FC\CC-pVTZ\C4H9O2(2)\ROOT\15-Jun-2019\0\\#
  opt=(calcfc,ts,noeigentest,maxcyc=500,modredundant) uB2PLYPD3/cc-pvtz
  scf=maxcyc=500 nosymm\\Title Card Required\\0,2\C,-1.0445359422,-1.36
 05194055,-0.038267503\C,-1.5350490648,-0.2149562485,0.3693577531\H,-1.
 437124758,-2.1609904897,-0.6482415259\H,-0.9095403761,0.4175863321,0.9
 940935748\C,2.1648768821,0.3649028342,0.0220781625\H,1.4659758201,0.38
 07104447,-0.8155009442\H,2.4005122318,1.3816006191,0.3306760843\H,3.07
 4078449,-0.1621878041,-0.2616363632\O,1.5709857107,-0.2411273103,1.161
 2838051\O,1.3241557681,-1.5982466542,0.8372773169\H,0.2987052855,-1.58
 06386856,0.443562313\C,-2.9120665169,0.3025745697,0.044940527\H,-3.462
 8472997,-0.3931438918,-0.5832433162\H,-3.4778356495,0.4666893651,0.962
 2809908\H,-2.8444685401,1.2604233251,-0.471498875\\Version=ES64L-G16Re
 vB.01\HF=-307.5645847,-307.5644547,-307.5641494,-307.5637198,-307.5632
 484,-307.5628436,-307.5625796,-307.5624757,-307.5625446,-307.562786,-3
 07.5631268,-307.5634646,-307.5637351,-307.5639095,-307.5639878,-307.56
 39793,-307.5639021,-307.5637719,-307.5636067,-307.5634333,-307.5632783
 ,-307.5631568,-307.5630871,-307.5630686,-307.5630976,-307.5631588,-307
 .5632346,-307.563316,-307.563395,-307.5634799,-307.563585,-307.5637254
 ,-307.5639115,-307.5641442,-307.5643802,-307.564551,-307.5645893\MP2=-
 307.9466611,-307.9465465,-307.9462113,-307.9457007,-307.9450977,-307.9
 445178,-307.9440772,-307.9438458,-307.9438453,-307.9440682,-307.944423
 9,-307.9447777,-307.9450465,-307.9452056,-307.9452596,-307.9452241,-30
 7.945119,-307.9449648,-307.9447786,-307.9445822,-307.9443985,-307.9442
 5,-307.9441622,-307.9441406,-307.9441796,-307.9442607,-307.9443589,-30
 7.9444607,-307.9445621,-307.9446785,-307.9448488,-307.9451092,-307.945
 4654,-307.9458775,-307.9462703,-307.9465559,-307.9466617\PUHF=-307.570
 7526,-307.5706332,-307.570354,-307.5699652,-307.5695445,-307.5691858,-
 307.5689474,-307.5688446,-307.5688942,-307.569096,-307.5694,-307.56971
 33,-307.5699692,-307.5701363,-307.570213,-307.5702099,-307.5701425,-30
 7.5700262,-307.5698779,-307.5697196,-307.5695756,-307.5694604,-307.569
 393,-307.5693735,-307.5693982,-307.5694535,-307.5695218,-307.5695942,-
 307.5696637,-307.5697388,-307.5698327,-307.5699601,-307.5701321,-307.5
 703475,-307.5705652,-307.5707227,-307.5707572\PMP2-0=-307.9475277,-307
 .9474139,-307.9470826,-307.946579,-307.9459855,-307.9454151,-307.94498
 08,-307.9447515,-307.9447499,-307.9449687,-307.9453198,-307.9456696,-3
 07.9459351,-307.9460915,-307.9461436,-307.9461073,-307.9460022,-307.94
 58489,-307.9456644,-307.9454698,-307.9452878,-307.9451408,-307.9450542
 ,-307.9450332,-307.9450724,-307.9451534,-307.9452515,-307.9453532,-307
 .9454543,-307.9455703,-307.9457394,-307.945997,-307.9463491,-307.94675
 59,-307.9471432,-307.9474247,-307.9475283\S2=0.779155,0.779152,0.77926
 3,0.779491,0.779817,0.780173,0.780438,0.780571,0.78059,0.780498,0.7803
 54,0.780209,0.780072,0.77995,0.779853,0.779789,0.779759,0.77976,0.7797
 94,0.779842,0.779902,0.779961,0.780015,0.780053,0.78008,0.780102,0.780
 124,0.780151,0.780175,0.780187,0.780159,0.780058,0.779883,0.779662,0.7
 79439,0.77926,0.779156\S2-1=0.750859,0.750832,0.750843,0.750896,0.7509
 85,0.751102,0.751205,0.751281,0.751342,0.751394,0.75141,0.751388,0.751
 339,0.751276,0.751214,0.751154,0.751104,0.751064,0.751037,0.751027,0.7
 51037,0.751061,0.751092,0.75112,0.751149,0.751178,0.751212,0.751253,0.
 751296,0.751331,0.751343,0.751309,0.751224,0.751116,0.751008,0.75092,0
 .750859\S2A=0.750573,0.750574,0.750578,0.750585,0.750597,0.750609,0.75
 0619,0.750625,0.750625,0.750621,0.750615,0.750609,0.750603,0.750599,0.
 750596,0.750594,0.750594,0.750594,0.750596,0.750598,0.750601,0.750603,
 0.750604,0.750606,0.750606,0.750607,0.750607,0.750608,0.750608,0.75060
 8,0.750606,0.750602,0.750596,0.750589,0.750582,0.750576,0.750573\RMSD=
 8.209e-09,5.966e-09,4.216e-09,6.019e-09,5.719e-09,6.798e-09,5.313e-09,
 3.506e-09,9.988e-09,8.885e-09,3.967e-09,5.925e-09,8.540e-09,9.715e-09,
 6.677e-09,8.199e-09,4.451e-09,6.555e-09,6.686e-09,7.882e-09,7.193e-09,
 3.763e-09,8.007e-09,7.730e-09,4.864e-09,7.067e-09,4.426e-09,8.714e-09,
 5.409e-09,8.900e-09,7.933e-09,4.471e-09,8.401e-09,3.247e-09,4.987e-09,
 4.453e-09,6.368e-09\PG=C01 [X(C4H9O2)]\\@


 ... UNTIL SCIENCE IS MIXED WITH EMOTION AND APPEALS TO THE HEART AND
 IMAGINATION , IT IS LIKE DEAD INORGANIC MATTER; AND WHEN IT IS SO MIXED
 AND SO TRANSFORMED IT IS LITERATURE.

                                  -- JOHN BURROUGHS
 Job cpu time:      11 days  6 hours 26 minutes 23.7 seconds.
 Elapsed time:       0 days  9 hours 46 minutes  1.5 seconds.
 File lengths (MBytes):  RWF=  57003 Int=      0 D2E=      0 Chk=     17 Scr=      1
 Normal termination of Gaussian 16 at Sat Jun 15 07:05:07 2019.
