 Entering Gaussian System, Link 0=g16
 Initial command:
 /ichec/packages/gaussian/16b01/l1.exe "/localscratch/353444/Gau-87836.inp" -scrdir="/localscratch/353444/"
 Entering Link 1 = /ichec/packages/gaussian/16b01/l1.exe PID=     88212.
  
 Copyright (c) 1988-2017, Gaussian, Inc.  All Rights Reserved.
  
 This is part of the Gaussian(R) 16 program.  It is based on
 the Gaussian(R) 09 system (copyright 2009, Gaussian, Inc.),
 the Gaussian(R) 03 system (copyright 2003, Gaussian, Inc.),
 the Gaussian(R) 98 system (copyright 1998, Gaussian, Inc.),
 the Gaussian(R) 94 system (copyright 1995, Gaussian, Inc.),
 the Gaussian 92(TM) system (copyright 1992, Gaussian, Inc.),
 the Gaussian 90(TM) system (copyright 1990, Gaussian, Inc.),
 the Gaussian 88(TM) system (copyright 1988, Gaussian, Inc.),
 the Gaussian 86(TM) system (copyright 1986, Carnegie Mellon
 University), and the Gaussian 82(TM) system (copyright 1983,
 Carnegie Mellon University). Gaussian is a federally registered
 trademark of Gaussian, Inc.
  
 This software contains proprietary and confidential information,
 including trade secrets, belonging to Gaussian, Inc.
  
 This software is provided under written license and may be
 used, copied, transmitted, or stored only in accord with that
 written license.
  
 The following legend is applicable only to US Government
 contracts under FAR:
  
                    RESTRICTED RIGHTS LEGEND
  
 Use, reproduction and disclosure by the US Government is
 subject to restrictions as set forth in subparagraphs (a)
 and (c) of the Commercial Computer Software - Restricted
 Rights clause in FAR 52.227-19.
  
 Gaussian, Inc.
 340 Quinnipiac St., Bldg. 40, Wallingford CT 06492
  
  
 ---------------------------------------------------------------
 Warning -- This program may not be used in any manner that
 competes with the business of Gaussian, Inc. or will provide
 assistance to any competitor of Gaussian, Inc.  The licensee
 of this program is prohibited from giving any competitor of
 Gaussian, Inc. access to this program.  By using this program,
 the user acknowledges that Gaussian, Inc. is engaged in the
 business of creating and licensing software in the field of
 computational chemistry and represents and warrants to the
 licensee that it is not a competitor of Gaussian, Inc. and that
 it will not use this program in any manner prohibited above.
 ---------------------------------------------------------------
  

 Cite this work as:
 Gaussian 16, Revision B.01,
 M. J. Frisch, G. W. Trucks, H. B. Schlegel, G. E. Scuseria, 
 M. A. Robb, J. R. Cheeseman, G. Scalmani, V. Barone, 
 G. A. Petersson, H. Nakatsuji, X. Li, M. Caricato, A. V. Marenich, 
 J. Bloino, B. G. Janesko, R. Gomperts, B. Mennucci, H. P. Hratchian, 
 J. V. Ortiz, A. F. Izmaylov, J. L. Sonnenberg, D. Williams-Young, 
 F. Ding, F. Lipparini, F. Egidi, J. Goings, B. Peng, A. Petrone, 
 T. Henderson, D. Ranasinghe, V. G. Zakrzewski, J. Gao, N. Rega, 
 G. Zheng, W. Liang, M. Hada, M. Ehara, K. Toyota, R. Fukuda, 
 J. Hasegawa, M. Ishida, T. Nakajima, Y. Honda, O. Kitao, H. Nakai, 
 T. Vreven, K. Throssell, J. A. Montgomery, Jr., J. E. Peralta, 
 F. Ogliaro, M. J. Bearpark, J. J. Heyd, E. N. Brothers, K. N. Kudin, 
 V. N. Staroverov, T. A. Keith, R. Kobayashi, J. Normand, 
 K. Raghavachari, A. P. Rendell, J. C. Burant, S. S. Iyengar, 
 J. Tomasi, M. Cossi, J. M. Millam, M. Klene, C. Adamo, R. Cammi, 
 J. W. Ochterski, R. L. Martin, K. Morokuma, O. Farkas, 
 J. B. Foresman, and D. J. Fox, Gaussian, Inc., Wallingford CT, 2016.
 
 ******************************************
 Gaussian 16:  ES64L-G16RevB.01 20-Dec-2017
                24-Jun-2019 
 ******************************************
 %mem=80GB
 %nproc=40
 Will use up to   40 processors via shared memory.
 ----------------------------------------------------------------------
 # opt=(calcfc,ts,noeigentest,maxcyc=500) freq=noraman uB2PLYPD3/cc-pvt
 z
 ----------------------------------------------------------------------
 1/5=1,6=500,10=4,11=1,18=20,38=1/1,3;
 2/9=110,12=2,17=6,18=5,40=1/2;
 3/5=16,6=1,11=2,25=1,30=1,71=2,74=-60,116=2,140=1/1,2,3;
 4//1;
 5/5=2,38=5/2;
 8/6=3,8=1,10=1,19=11,30=-1/1;
 9/15=3,16=-3/6;
 11/6=1,8=1,15=11,17=12,24=-1,27=1,28=-2,29=300,32=6,42=3/1,2,10;
 10/6=2,21=1/2;
 8/6=4,8=1,10=1,19=11,30=-1/11,4;
 10/5=1,20=4/2;
 11/12=2,14=11,16=1,17=2,28=-2,42=3,76=2/2,10,12;
 6/7=2,8=2,9=2,10=2/1;
 7/10=1,12=2,25=1,44=2/1,2,3,16;
 1/5=1,6=500,10=4,11=1,18=20/3(2);
 2/9=110/2;
 99//99;
 2/9=110/2;
 3/5=16,6=1,11=2,25=1,30=1,71=1,74=-60,116=2/1,2,3;
 4/5=5,16=3,69=1/1;
 5/5=2,38=5/2;
 8/6=4,10=1/1;
 9/15=2,16=-3/6;
 10/5=1/2;
 7/12=2/1,2,3,16;
 1/5=1,6=500,11=1,18=20/3(-8);
 2/9=110/2;
 6/7=2,8=2,9=2,10=2/1;
 99/9=10/99;
 -------------------
 Title Card Required
 -------------------
 Symbolic Z-matrix:
 Charge =  0 Multiplicity = 2
 C                     2.29094  -0.44566   0.15654 
 H                     2.84871  -1.35396   0.41629 
 H                     2.95495   0.14185  -0.47935 
 C                     1.07104  -0.8461   -0.62284 
 H                     1.24142  -1.30699  -1.59104 
 H                     0.28579  -1.33423  -0.05029 
 C                    -2.22704   0.99661  -0.61357 
 H                    -2.15929  -0.08213  -0.76405 
 H                    -2.93769   1.21556   0.1808 
 H                    -2.53555   1.4794   -1.53932 
 O                    -0.98843   1.52309  -0.16147 
 O                    -0.04417   1.34687  -1.19344 
 H                     0.45478   0.31686  -0.95757 
 C                     1.96204   0.32879   1.43011 
 H                     1.32576  -0.26207   2.08927 
 H                     2.86802   0.58259   1.97783 
 H                     1.43247   1.24953   1.19475 
 
 Add virtual bond connecting atoms H13        and O12        Dist= 2.21D+00.
 Add virtual bond connecting atoms H13        and C4         Dist= 2.57D+00.

 GradGradGradGradGradGradGradGradGradGradGradGradGradGradGradGradGradGrad
 Berny optimization.
 Initialization pass.
                           ----------------------------
                           !    Initial Parameters    !
                           ! (Angstroms and Degrees)  !
 --------------------------                            --------------------------
 ! Name  Definition              Value          Derivative Info.                !
 --------------------------------------------------------------------------------
 ! R1    R(1,2)                  1.0971         calculate D2E/DX2 analytically  !
 ! R2    R(1,3)                  1.0911         calculate D2E/DX2 analytically  !
 ! R3    R(1,4)                  1.502          calculate D2E/DX2 analytically  !
 ! R4    R(1,14)                 1.5264         calculate D2E/DX2 analytically  !
 ! R5    R(4,5)                  1.0857         calculate D2E/DX2 analytically  !
 ! R6    R(4,6)                  1.0875         calculate D2E/DX2 analytically  !
 ! R7    R(4,13)                 1.358          calculate D2E/DX2 analytically  !
 ! R8    R(7,8)                  1.0913         calculate D2E/DX2 analytically  !
 ! R9    R(7,9)                  1.0881         calculate D2E/DX2 analytically  !
 ! R10   R(7,10)                 1.0887         calculate D2E/DX2 analytically  !
 ! R11   R(7,11)                 1.4198         calculate D2E/DX2 analytically  !
 ! R12   R(11,12)                1.4098         calculate D2E/DX2 analytically  !
 ! R13   R(12,13)                1.1686         calculate D2E/DX2 analytically  !
 ! R14   R(14,15)                1.0902         calculate D2E/DX2 analytically  !
 ! R15   R(14,16)                1.0887         calculate D2E/DX2 analytically  !
 ! R16   R(14,17)                1.0879         calculate D2E/DX2 analytically  !
 ! A1    A(2,1,3)              105.9257         calculate D2E/DX2 analytically  !
 ! A2    A(2,1,4)              108.364          calculate D2E/DX2 analytically  !
 ! A3    A(2,1,14)             109.3942         calculate D2E/DX2 analytically  !
 ! A4    A(3,1,4)              109.5984         calculate D2E/DX2 analytically  !
 ! A5    A(3,1,14)             110.133          calculate D2E/DX2 analytically  !
 ! A6    A(4,1,14)             113.1549         calculate D2E/DX2 analytically  !
 ! A7    A(1,4,5)              116.644          calculate D2E/DX2 analytically  !
 ! A8    A(1,4,6)              115.6528         calculate D2E/DX2 analytically  !
 ! A9    A(1,4,13)             105.554          calculate D2E/DX2 analytically  !
 ! A10   A(5,4,6)              113.0951         calculate D2E/DX2 analytically  !
 ! A11   A(5,4,13)             102.4113         calculate D2E/DX2 analytically  !
 ! A12   A(6,4,13)             100.747          calculate D2E/DX2 analytically  !
 ! A13   A(8,7,9)              109.8839         calculate D2E/DX2 analytically  !
 ! A14   A(8,7,10)             109.797          calculate D2E/DX2 analytically  !
 ! A15   A(8,7,11)             110.8735         calculate D2E/DX2 analytically  !
 ! A16   A(9,7,10)             110.2715         calculate D2E/DX2 analytically  !
 ! A17   A(9,7,11)             105.23           calculate D2E/DX2 analytically  !
 ! A18   A(10,7,11)            110.7043         calculate D2E/DX2 analytically  !
 ! A19   A(7,11,12)            107.7506         calculate D2E/DX2 analytically  !
 ! A20   A(11,12,13)           104.3832         calculate D2E/DX2 analytically  !
 ! A21   A(1,14,15)            110.8095         calculate D2E/DX2 analytically  !
 ! A22   A(1,14,16)            111.0231         calculate D2E/DX2 analytically  !
 ! A23   A(1,14,17)            110.7186         calculate D2E/DX2 analytically  !
 ! A24   A(15,14,16)           107.9302         calculate D2E/DX2 analytically  !
 ! A25   A(15,14,17)           107.7818         calculate D2E/DX2 analytically  !
 ! A26   A(16,14,17)           108.4589         calculate D2E/DX2 analytically  !
 ! A27   L(4,13,12,8,-1)       181.6118         calculate D2E/DX2 analytically  !
 ! A28   L(4,13,12,8,-2)       176.9793         calculate D2E/DX2 analytically  !
 ! D1    D(2,1,4,5)            -64.7852         calculate D2E/DX2 analytically  !
 ! D2    D(2,1,4,6)             71.9173         calculate D2E/DX2 analytically  !
 ! D3    D(2,1,4,13)          -177.6933         calculate D2E/DX2 analytically  !
 ! D4    D(3,1,4,5)             50.3711         calculate D2E/DX2 analytically  !
 ! D5    D(3,1,4,6)           -172.9265         calculate D2E/DX2 analytically  !
 ! D6    D(3,1,4,13)           -62.537          calculate D2E/DX2 analytically  !
 ! D7    D(14,1,4,5)           173.7142         calculate D2E/DX2 analytically  !
 ! D8    D(14,1,4,6)           -49.5833         calculate D2E/DX2 analytically  !
 ! D9    D(14,1,4,13)           60.8062         calculate D2E/DX2 analytically  !
 ! D10   D(2,1,14,15)          -62.0613         calculate D2E/DX2 analytically  !
 ! D11   D(2,1,14,16)           57.8655         calculate D2E/DX2 analytically  !
 ! D12   D(2,1,14,17)          178.3978         calculate D2E/DX2 analytically  !
 ! D13   D(3,1,14,15)         -178.0943         calculate D2E/DX2 analytically  !
 ! D14   D(3,1,14,16)          -58.1675         calculate D2E/DX2 analytically  !
 ! D15   D(3,1,14,17)           62.3648         calculate D2E/DX2 analytically  !
 ! D16   D(4,1,14,15)           58.8578         calculate D2E/DX2 analytically  !
 ! D17   D(4,1,14,16)          178.7846         calculate D2E/DX2 analytically  !
 ! D18   D(4,1,14,17)          -60.6831         calculate D2E/DX2 analytically  !
 ! D19   D(1,4,12,11)          -94.4127         calculate D2E/DX2 analytically  !
 ! D20   D(5,4,12,11)          143.0888         calculate D2E/DX2 analytically  !
 ! D21   D(6,4,12,11)           25.816          calculate D2E/DX2 analytically  !
 ! D22   D(8,7,11,12)           65.0984         calculate D2E/DX2 analytically  !
 ! D23   D(9,7,11,12)         -176.146          calculate D2E/DX2 analytically  !
 ! D24   D(10,7,11,12)         -57.0173         calculate D2E/DX2 analytically  !
 ! D25   D(7,11,12,13)         -92.1235         calculate D2E/DX2 analytically  !
 --------------------------------------------------------------------------------
 Trust Radius=3.00D-01 FncErr=1.00D-07 GrdErr=1.00D-07 EigMax=2.50D+02 EigMin=1.00D-04
 Number of steps in this run=    102 maximum allowed number of steps=    102.
 Search for a saddle point of order  1.
 GradGradGradGradGradGradGradGradGradGradGradGradGradGradGradGradGradGrad

                          Input orientation:                          
 ---------------------------------------------------------------------
 Center     Atomic      Atomic             Coordinates (Angstroms)
 Number     Number       Type             X           Y           Z
 ---------------------------------------------------------------------
      1          6           0        2.290938   -0.445659    0.156542
      2          1           0        2.848707   -1.353955    0.416288
      3          1           0        2.954945    0.141853   -0.479347
      4          6           0        1.071040   -0.846104   -0.622844
      5          1           0        1.241419   -1.306991   -1.591036
      6          1           0        0.285794   -1.334227   -0.050285
      7          6           0       -2.227040    0.996613   -0.613566
      8          1           0       -2.159292   -0.082126   -0.764045
      9          1           0       -2.937694    1.215559    0.180795
     10          1           0       -2.535547    1.479399   -1.539320
     11          8           0       -0.988433    1.523089   -0.161470
     12          8           0       -0.044170    1.346870   -1.193438
     13          1           0        0.454779    0.316855   -0.957572
     14          6           0        1.962044    0.328790    1.430108
     15          1           0        1.325758   -0.262068    2.089272
     16          1           0        2.868016    0.582585    1.977829
     17          1           0        1.432470    1.249530    1.194750
 ---------------------------------------------------------------------
                    Distance matrix (angstroms):
                    1          2          3          4          5
     1  C    0.000000
     2  H    1.097076   0.000000
     3  H    1.091068   1.746680   0.000000
     4  C    1.501982   2.120804   2.132076   0.000000
     5  H    2.213010   2.571951   2.504231   1.085745   0.000000
     6  H    2.202937   2.605111   3.080142   1.087520   1.813250
     7  C    4.804721   5.687616   5.253722   3.777966   4.276944
     8  H    4.558967   5.300074   5.127050   3.322446   3.707970
     9  H    5.486240   6.335637   6.025930   4.578891   5.193037
    10  H    5.465963   6.390813   5.749615   4.388093   4.693838
    11  O    3.838147   4.830614   4.190357   3.172912   3.876242
    12  O    3.238570   4.272518   3.310088   2.525551   2.975534
    13  H    2.279069   3.226451   2.551501   1.358048   1.912317
    14  C    1.526405   2.155373   2.160282   2.527623   3.510326
    15  H    2.168115   2.512064   3.068421   2.785956   3.826701
    16  H    2.169652   2.487764   2.497902   3.468973   4.353517
    17  H    2.165296   3.064289   2.519420   2.797492   3.785882
                    6          7          8          9         10
     6  H    0.000000
     7  C    3.473390   0.000000
     8  H    2.838249   1.091289   0.000000
     9  H    4.116513   1.088107   1.783990   0.000000
    10  H    4.253667   1.088705   1.783530   1.786093   0.000000
    11  O    3.130538   1.419759   2.076228   2.002833   2.072183
    12  O    2.933250   2.285575   2.588465   3.205969   2.518761
    13  H    1.891507   2.787932   2.651416   3.689502   3.260673
    14  C    2.786934   4.708611   4.687064   5.133671   5.510874
    15  H    2.609359   4.638101   4.507701   4.899254   5.577550
    16  H    3.802011   5.731173   5.764854   6.110340   6.509463
    17  H    3.088815   4.089742   4.302434   4.486379   4.824224
                   11         12         13         14         15
    11  O    0.000000
    12  O    1.409838   0.000000
    13  H    2.042459   1.168552   0.000000
    14  C    3.558762   3.456064   2.823651   0.000000
    15  H    3.688917   3.904045   3.221337   1.090170   0.000000
    16  H    4.509251   4.372859   3.809318   1.088667   1.761936
    17  H    2.788358   2.809516   2.541309   1.087936   1.759683
                   16         17
    16  H    0.000000
    17  H    1.766018   0.000000
 Stoichiometry    C4H11O2(2)
 Framework group  C1[X(C4H11O2)]
 Deg. of freedom    45
 Full point group                 C1      NOp   1
 Largest Abelian subgroup         C1      NOp   1
 Largest concise Abelian subgroup C1      NOp   1
                         Standard orientation:                         
 ---------------------------------------------------------------------
 Center     Atomic      Atomic             Coordinates (Angstroms)
 Number     Number       Type             X           Y           Z
 ---------------------------------------------------------------------
      1          6           0       -2.172834   -0.330507    0.072210
      2          1           0       -3.066422   -0.665516   -0.468941
      3          1           0       -2.372158   -0.523075    1.127491
      4          6           0       -1.006390   -1.161672   -0.380031
      5          1           0       -1.043954   -2.221332   -0.146468
      6          1           0       -0.645715   -0.959050   -1.385793
      7          6           0        2.579784    0.015569   -0.542758
      8          1           0        2.179217   -0.737768   -1.223155
      9          1           0        3.061817    0.808532   -1.110939
     10          1           0        3.291500   -0.445419    0.140054
     11          8           0        1.535422    0.654036    0.176534
     12          8           0        0.928960   -0.313596    1.003296
     13          1           0        0.051277   -0.737299    0.358577
     14          6           0       -1.970428    1.164500   -0.159956
     15          1           0       -1.803633    1.373213   -1.216880
     16          1           0       -2.843278    1.731097    0.159883
     17          1           0       -1.104496    1.525754    0.390734
 ---------------------------------------------------------------------
 Rotational constants (GHZ):           5.7388482           1.5256981           1.4071286
 Standard basis: CC-pVTZ (5D, 7F)
 There are   375 symmetry adapted cartesian basis functions of A   symmetry.
 There are   334 symmetry adapted basis functions of A   symmetry.
   334 basis functions,   499 primitive gaussians,   375 cartesian basis functions
    26 alpha electrons       25 beta electrons
       nuclear repulsion energy       252.9530050917 Hartrees.
 NAtoms=   17 NActive=   17 NUniq=   17 SFac= 1.00D+00 NAtFMM=   60 NAOKFM=F Big=F
 Integral buffers will be    131072 words long.
 Raffenetti 2 integral format.
 Two-electron integral symmetry is turned on.
 Nuclear repulsion after empirical dispersion term =      252.9450756157 Hartrees.
 One-electron integrals computed using PRISM.
 NBasis=   334 RedAO= T EigKep=  7.54D-04  NBF=   334
 NBsUse=   334 1.00D-06 EigRej= -1.00D+00 NBFU=   334
 ExpMin= 1.03D-01 ExpMax= 1.53D+04 ExpMxC= 5.22D+02 IAcc=3 IRadAn=         5 AccDes= 0.00D+00
 Harris functional with IExCor=  419 and IRadAn=       5 diagonalized for initial guess.
 HarFok:  IExCor=  419 AccDes= 0.00D+00 IRadAn=         5 IDoV= 1 UseB2=F ITyADJ=14
 ICtDFT=  3500011 ScaDFX=  1.000000  1.000000  1.000000  1.000000
 FoFCou: FMM=F IPFlag=           0 FMFlag=      100000 FMFlg1=           0
         NFxFlg=           0 DoJE=T BraDBF=F KetDBF=T FulRan=T
         wScrn=  0.000000 ICntrl=       500 IOpCl=  0 I1Cent=   200000004 NGrid=           0
         NMat0=    1 NMatS0=      1 NMatT0=    0 NMatD0=    1 NMtDS0=    0 NMtDT0=    0
 Petite list used in FoFCou.
 Initial guess <Sx>= 0.0000 <Sy>= 0.0000 <Sz>= 0.5000 <S**2>= 0.7500 S= 0.5000
 Requested convergence on RMS density matrix=1.00D-08 within 128 cycles.
 Requested convergence on MAX density matrix=1.00D-06.
 Requested convergence on             energy=1.00D-06.
 No special actions if energy rises.
 Integral accuracy reduced to 1.0D-05 until final iterations.
 Initial convergence to 1.0D-05 achieved.  Increase integral accuracy.
 SCF Done:  E(UB2PLYPD3) =  -308.791273733     A.U. after   19 cycles
            NFock= 19  Conv=0.29D-08     -V/T= 2.0044
 <Sx>= 0.0000 <Sy>= 0.0000 <Sz>= 0.5000 <S**2>= 0.7684 S= 0.5091
 <L.S>=  0.00000000000    
 Annihilation of the first spin contaminant:
 S**2 before annihilation     0.7684,   after     0.7501
 DoSCS=T DFT=T ScalE2(SS,OS)=  0.270000  0.270000
 ExpMin= 1.03D-01 ExpMax= 1.53D+04 ExpMxC= 5.22D+02 IAcc=3 IRadAn=         5 AccDes= 0.00D+00
 HarFok:  IExCor=  205 AccDes= 0.00D+00 IRadAn=         5 IDoV=-2 UseB2=F ITyADJ=14
 ICtDFT= 12500011 ScaDFX=  1.000000  1.000000  1.000000  1.000000
 Range of M.O.s used for correlation:     7   334
 NBasis=   334 NAE=    26 NBE=    25 NFC=     6 NFV=     0
 NROrb=    328 NOA=    20 NOB=    19 NVA=   308 NVB=   309

 **** Warning!!: The largest alpha MO coefficient is  0.12140915D+02


 **** Warning!!: The largest beta MO coefficient is  0.12140415D+02

 DoSCS=T DFT=T ScalE2(SS,OS)=  0.270000  0.270000
 Disk-based method using ON**2 memory for 20 occupieds at a time.
 Permanent disk used for amplitudes=    91502950 words.
 Estimated scratch disk usage=  1808196916 words.
 Actual    scratch disk usage=  1748310324 words.
 JobTyp=2 Pass  1:  I=   7 to  26 NPSUse= 40 ParTrn=T ParDer=T DoDerP=T.
 (rs|ai) integrals will be sorted in core.
 Actual    scratch disk usage=  1748310324 words.
 JobTyp=3 Pass  1:  I=   7 to  25 NPSUse= 40 ParTrn=T ParDer=T DoDerP=T.
 (rs|ai) integrals will be sorted in core.
 Spin components of T(2) and E(2):
     alpha-alpha T2 =       0.6436832841D-01 E2=     -0.4726598088D-01
     alpha-beta  T2 =       0.3969407180D+00 E2=     -0.2992764362D+00
     beta-beta   T2 =       0.6852418472D-01 E2=     -0.4563923510D-01
 (S**2,0)=  0.76838D+00           (S**2,1)=  0.74274D+00
 Scaling Projection term by:   0.270000
 E(PUHF)=      -0.30879745432D+03        E(PMP2)=      -0.30918396581D+03
 E2(B2PLYPD3) =    -0.3921816522D+00 E(B2PLYPD3) =    -0.30918345538562D+03
 G2DrvN: will do    18 centers at a time, making    1 passes.
 Calling FoFCou, ICntrl=  3107 FMM=F I1Cent=   0 AccDes= 0.00D+00.
 End of G2Drv F.D. properties file   721 does not exist.
 End of G2Drv F.D. properties file   722 does not exist.
 End of G2Drv F.D. properties file   788 does not exist.
          IDoAtm=11111111111111111
          Differentiating once with respect to electric field.
                with respect to dipole field.
          Differentiating once with respect to nuclear coordinates.
 Keep R1 and R2 ints in memory in canonical form, NReq=3176104355.
          There are    54 degrees of freedom in the 1st order CPHF.  IDoFFX=6 NUNeed=    54.
     51 vectors produced by pass  0 Test12= 2.91D-14 1.85D-09 XBig12= 7.09D+01 4.65D+00.
 AX will form    51 AO Fock derivatives at one time.
     51 vectors produced by pass  1 Test12= 2.91D-14 1.85D-09 XBig12= 4.34D+00 3.62D-01.
     51 vectors produced by pass  2 Test12= 2.91D-14 1.85D-09 XBig12= 2.27D-01 8.30D-02.
     51 vectors produced by pass  3 Test12= 2.91D-14 1.85D-09 XBig12= 3.27D-03 4.72D-03.
     51 vectors produced by pass  4 Test12= 2.91D-14 1.85D-09 XBig12= 3.22D-05 4.98D-04.
     51 vectors produced by pass  5 Test12= 2.91D-14 1.85D-09 XBig12= 4.03D-07 6.09D-05.
     49 vectors produced by pass  6 Test12= 2.91D-14 1.85D-09 XBig12= 3.58D-09 5.50D-06.
     16 vectors produced by pass  7 Test12= 2.91D-14 1.85D-09 XBig12= 2.66D-11 3.77D-07.
      3 vectors produced by pass  8 Test12= 2.91D-14 1.85D-09 XBig12= 1.49D-13 3.91D-08.
      1 vectors produced by pass  9 Test12= 2.91D-14 1.85D-09 XBig12= 9.91D-16 2.71D-09.
 InvSVY:  IOpt=1 It=  1 EMax= 5.33D-15
 Solved reduced A of dimension   375 with    54 vectors.
 End of Minotr F.D. properties file   721 does not exist.
 End of Minotr F.D. properties file   722 does not exist.
 End of Minotr F.D. properties file   788 does not exist.
 MDV= 10737418240.
 DoSCS=T DFT=T ScalE2(SS,OS)=  0.270000  0.270000
 Form MO integral derivatives with frozen-active canonical formalism.
 Discarding MO integrals.
 Reordered first order wavefunction length =    368623478
 In DefCFB: NBatch=  1 ICI= 26 ICA=309 LFMax= 78
            Large arrays: LIAPS=  7882233000 LIARS=  1476247500 words.
 In DefCFB: NBatch=  1 ICI= 26 ICA=309 LFMax= 78
            Large arrays: LIAPS=  7882233000 LIARS=  1476247500 words.
 Semi-Direct transformation.
 ModeAB=           4 MOrb=            26 LenV=   10734123941
 LASXX=    460751213 LTotXX=   460751213 LenRXX=   928395468
 LTotAB=   467644255 MaxLAS=   556088624 LenRXY=           0
 NonZer=  1389146681 LenScr=  2091891712 LnRSAI=   556088624
 LnScr1=   837404672 LExtra=           0 Total=   4413780476
 MaxDsk=          -1 SrtSym=           T ITran=            4
 JobTyp=1 Pass  1:  I=   1 to  26.
 (rs|ai) integrals will be sorted in core.
 ModeAB=           4 MOrb=            25 LenV=   10734123941
 LASXX=    443915925 LTotXX=   443915925 LenRXX=   826983225
 LTotAB=   383067300 MaxLAS=   534700600 LenRXY=           0
 NonZer=  1270899150 LenScr=  1913825280 LnRSAI=   534700600
 LnScr1=   805196800 LExtra=           0 Total=   4080705905
 MaxDsk=          -1 SrtSym=           T ITran=            4
 JobTyp=2 Pass  1:  I=   1 to  25.
 (rs|ai) integrals will be sorted in core.
 SymMOI:  orbitals are not symmetric.
 DoSCS=T DFT=T ScalE2(SS,OS)=  0.270000  0.270000
 Spin components of T(2) and E(2):
     alpha-alpha T2 =       0.6436832841D-01 E2=     -0.4726598088D-01
     alpha-beta  T2 =       0.3969407180D+00 E2=     -0.2992764362D+00
     beta-beta   T2 =       0.6852418472D-01 E2=     -0.4563923510D-01
 E2(B2PLYPD3) =    -0.3921816522D+00 E(B2PLYPD3) =    -0.30918345538562D+03
 (S**2,0)=  0.76838D+00           (S**2,1)=  0.74274D+00
 Scaling Projection term by:   0.270000
 E(PUHF)=      -0.30879745432D+03        E(PMP2)=      -0.30918396581D+03
          IDoAtm=11111111111111111
          Differentiating once with respect to electric field.
                with respect to dipole field.
          Differentiating once with respect to nuclear coordinates.
 Keep R1 and R2 ints in memory in canonical form, NReq=3176239665.
          There are     1 degrees of freedom in the 1st order CPHF.  IDoFFX=0 NUNeed=     1.
 LinEq1:  Iter=  0 NonCon=     1 RMS=8.65D-04 Max=6.28D-02 NDo=     1
 AX will form     1 AO Fock derivatives at one time.
 LinEq1:  Iter=  1 NonCon=     1 RMS=2.77D-04 Max=9.32D-03 NDo=     1
 LinEq1:  Iter=  2 NonCon=     1 RMS=1.50D-04 Max=8.14D-03 NDo=     1
 LinEq1:  Iter=  3 NonCon=     1 RMS=5.97D-05 Max=1.16D-03 NDo=     1
 LinEq1:  Iter=  4 NonCon=     1 RMS=3.34D-05 Max=7.15D-04 NDo=     1
 LinEq1:  Iter=  5 NonCon=     1 RMS=2.24D-05 Max=6.89D-04 NDo=     1
 LinEq1:  Iter=  6 NonCon=     1 RMS=1.57D-05 Max=5.01D-04 NDo=     1
 LinEq1:  Iter=  7 NonCon=     1 RMS=6.00D-06 Max=9.59D-05 NDo=     1
 LinEq1:  Iter=  8 NonCon=     1 RMS=2.56D-06 Max=3.65D-05 NDo=     1
 LinEq1:  Iter=  9 NonCon=     1 RMS=1.16D-06 Max=2.43D-05 NDo=     1
 LinEq1:  Iter= 10 NonCon=     1 RMS=4.00D-07 Max=8.09D-06 NDo=     1
 LinEq1:  Iter= 11 NonCon=     1 RMS=1.26D-07 Max=3.29D-06 NDo=     1
 LinEq1:  Iter= 12 NonCon=     1 RMS=4.66D-08 Max=1.00D-06 NDo=     1
 LinEq1:  Iter= 13 NonCon=     1 RMS=2.11D-08 Max=3.92D-07 NDo=     1
 LinEq1:  Iter= 14 NonCon=     1 RMS=7.56D-09 Max=1.46D-07 NDo=     1
 LinEq1:  Iter= 15 NonCon=     1 RMS=2.42D-09 Max=4.25D-08 NDo=     1
 LinEq1:  Iter= 16 NonCon=     1 RMS=7.94D-10 Max=1.32D-08 NDo=     1
 LinEq1:  Iter= 17 NonCon=     1 RMS=3.18D-10 Max=6.19D-09 NDo=     1
 LinEq1:  Iter= 18 NonCon=     1 RMS=1.27D-10 Max=2.83D-09 NDo=     1
 LinEq1:  Iter= 19 NonCon=     1 RMS=4.54D-11 Max=1.62D-09 NDo=     1
 LinEq1:  Iter= 20 NonCon=     0 RMS=1.56D-11 Max=6.85D-10 NDo=     1
 Linear equations converged to 1.000D-10 1.000D-09 after    20 iterations.
 End of Minotr F.D. properties file   721 does not exist.
 End of Minotr F.D. properties file   722 does not exist.
 End of Minotr F.D. properties file   788 does not exist.
 Symmetrizing basis deriv contribution to polar:
 IMax=3 JMax=2 DiffMx= 0.00D+00
 G2DrvN: will do    18 centers at a time, making    1 passes.
 Calling FoFCou, ICntrl=  3107 FMM=F I1Cent=   0 AccDes= 0.00D+00.
 End of G2Drv F.D. properties file   721 does not exist.
 End of G2Drv F.D. properties file   722 does not exist.
 End of G2Drv F.D. properties file   788 does not exist.
 DoSCS=T DFT=T ScalE2(SS,OS)=  0.270000  0.270000
 R2 and R3 integrals will be kept in memory, NReq=  4996899000.
 DD1Dir will call FoFMem   1 times, MxPair=      1926
 NAB=   650 NAA=   325 NBB=   300.
 Discarding MO integrals.

 **********************************************************************

            Population analysis using the SCF Density.

 **********************************************************************

 Orbital symmetries:
 Alpha Orbitals:
       Occupied  (A) (A) (A) (A) (A) (A) (A) (A) (A) (A) (A) (A)
                 (A) (A) (A) (A) (A) (A) (A) (A) (A) (A) (A) (A)
                 (A) (A)
       Virtual   (A) (A) (A) (A) (A) (A) (A) (A) (A) (A) (A) (A)
                 (A) (A) (A) (A) (A) (A) (A) (A) (A) (A) (A) (A)
                 (A) (A) (A) (A) (A) (A) (A) (A) (A) (A) (A) (A)
                 (A) (A) (A) (A) (A) (A) (A) (A) (A) (A) (A) (A)
                 (A) (A) (A) (A) (A) (A) (A) (A) (A) (A) (A) (A)
                 (A) (A) (A) (A) (A) (A) (A) (A) (A) (A) (A) (A)
                 (A) (A) (A) (A) (A) (A) (A) (A) (A) (A) (A) (A)
                 (A) (A) (A) (A) (A) (A) (A) (A) (A) (A) (A) (A)
                 (A) (A) (A) (A) (A) (A) (A) (A) (A) (A) (A) (A)
                 (A) (A) (A) (A) (A) (A) (A) (A) (A) (A) (A) (A)
                 (A) (A) (A) (A) (A) (A) (A) (A) (A) (A) (A) (A)
                 (A) (A) (A) (A) (A) (A) (A) (A) (A) (A) (A) (A)
                 (A) (A) (A) (A) (A) (A) (A) (A) (A) (A) (A) (A)
                 (A) (A) (A) (A) (A) (A) (A) (A) (A) (A) (A) (A)
                 (A) (A) (A) (A) (A) (A) (A) (A) (A) (A) (A) (A)
                 (A) (A) (A) (A) (A) (A) (A) (A) (A) (A) (A) (A)
                 (A) (A) (A) (A) (A) (A) (A) (A) (A) (A) (A) (A)
                 (A) (A) (A) (A) (A) (A) (A) (A) (A) (A) (A) (A)
                 (A) (A) (A) (A) (A) (A) (A) (A) (A) (A) (A) (A)
                 (A) (A) (A) (A) (A) (A) (A) (A) (A) (A) (A) (A)
                 (A) (A) (A) (A) (A) (A) (A) (A) (A) (A) (A) (A)
                 (A) (A) (A) (A) (A) (A) (A) (A) (A) (A) (A) (A)
                 (A) (A) (A) (A) (A) (A) (A) (A) (A) (A) (A) (A)
                 (A) (A) (A) (A) (A) (A) (A) (A) (A) (A) (A) (A)
                 (A) (A) (A) (A) (A) (A) (A) (A) (A) (A) (A) (A)
                 (A) (A) (A) (A) (A) (A) (A) (A)
 Beta  Orbitals:
       Occupied  (A) (A) (A) (A) (A) (A) (A) (A) (A) (A) (A) (A)
                 (A) (A) (A) (A) (A) (A) (A) (A) (A) (A) (A) (A)
                 (A)
       Virtual   (A) (A) (A) (A) (A) (A) (A) (A) (A) (A) (A) (A)
                 (A) (A) (A) (A) (A) (A) (A) (A) (A) (A) (A) (A)
                 (A) (A) (A) (A) (A) (A) (A) (A) (A) (A) (A) (A)
                 (A) (A) (A) (A) (A) (A) (A) (A) (A) (A) (A) (A)
                 (A) (A) (A) (A) (A) (A) (A) (A) (A) (A) (A) (A)
                 (A) (A) (A) (A) (A) (A) (A) (A) (A) (A) (A) (A)
                 (A) (A) (A) (A) (A) (A) (A) (A) (A) (A) (A) (A)
                 (A) (A) (A) (A) (A) (A) (A) (A) (A) (A) (A) (A)
                 (A) (A) (A) (A) (A) (A) (A) (A) (A) (A) (A) (A)
                 (A) (A) (A) (A) (A) (A) (A) (A) (A) (A) (A) (A)
                 (A) (A) (A) (A) (A) (A) (A) (A) (A) (A) (A) (A)
                 (A) (A) (A) (A) (A) (A) (A) (A) (A) (A) (A) (A)
                 (A) (A) (A) (A) (A) (A) (A) (A) (A) (A) (A) (A)
                 (A) (A) (A) (A) (A) (A) (A) (A) (A) (A) (A) (A)
                 (A) (A) (A) (A) (A) (A) (A) (A) (A) (A) (A) (A)
                 (A) (A) (A) (A) (A) (A) (A) (A) (A) (A) (A) (A)
                 (A) (A) (A) (A) (A) (A) (A) (A) (A) (A) (A) (A)
                 (A) (A) (A) (A) (A) (A) (A) (A) (A) (A) (A) (A)
                 (A) (A) (A) (A) (A) (A) (A) (A) (A) (A) (A) (A)
                 (A) (A) (A) (A) (A) (A) (A) (A) (A) (A) (A) (A)
                 (A) (A) (A) (A) (A) (A) (A) (A) (A) (A) (A) (A)
                 (A) (A) (A) (A) (A) (A) (A) (A) (A) (A) (A) (A)
                 (A) (A) (A) (A) (A) (A) (A) (A) (A) (A) (A) (A)
                 (A) (A) (A) (A) (A) (A) (A) (A) (A) (A) (A) (A)
                 (A) (A) (A) (A) (A) (A) (A) (A) (A) (A) (A) (A)
                 (A) (A) (A) (A) (A) (A) (A) (A) (A)
 The electronic state is 2-A.
 Alpha  occ. eigenvalues --  -19.78439 -19.78331 -10.65945 -10.63638 -10.61964
 Alpha  occ. eigenvalues --  -10.59840  -1.27164  -1.01945  -0.91315  -0.79985
 Alpha  occ. eigenvalues --   -0.77285  -0.69053  -0.60524  -0.55674  -0.54511
 Alpha  occ. eigenvalues --   -0.53546  -0.52188  -0.49228  -0.47804  -0.43935
 Alpha  occ. eigenvalues --   -0.42698  -0.41731  -0.40795  -0.36570  -0.36397
 Alpha  occ. eigenvalues --   -0.29913
 Alpha virt. eigenvalues --    0.07751   0.09144   0.11216   0.12188   0.13338
 Alpha virt. eigenvalues --    0.13781   0.15307   0.15465   0.16172   0.18481
 Alpha virt. eigenvalues --    0.18805   0.21717   0.22778   0.26620   0.28986
 Alpha virt. eigenvalues --    0.30242   0.31480   0.31607   0.32720   0.34299
 Alpha virt. eigenvalues --    0.34786   0.36408   0.39337   0.43398   0.46208
 Alpha virt. eigenvalues --    0.48270   0.49297   0.50480   0.50914   0.51563
 Alpha virt. eigenvalues --    0.52533   0.52923   0.53984   0.54703   0.55352
 Alpha virt. eigenvalues --    0.55586   0.56848   0.57226   0.58411   0.59920
 Alpha virt. eigenvalues --    0.62735   0.64559   0.68774   0.69464   0.72755
 Alpha virt. eigenvalues --    0.74917   0.76832   0.78826   0.78994   0.83247
 Alpha virt. eigenvalues --    0.85575   0.86439   0.89008   0.92017   0.92765
 Alpha virt. eigenvalues --    0.95317   0.97415   0.98195   1.03549   1.04182
 Alpha virt. eigenvalues --    1.04783   1.05694   1.06181   1.08895   1.09416
 Alpha virt. eigenvalues --    1.11939   1.12723   1.13782   1.15089   1.17087
 Alpha virt. eigenvalues --    1.18503   1.18822   1.20048   1.21256   1.23528
 Alpha virt. eigenvalues --    1.24429   1.26617   1.27344   1.28841   1.30826
 Alpha virt. eigenvalues --    1.32820   1.33815   1.36264   1.37922   1.38957
 Alpha virt. eigenvalues --    1.39435   1.39944   1.41100   1.43185   1.47156
 Alpha virt. eigenvalues --    1.49045   1.50229   1.51259   1.53566   1.56571
 Alpha virt. eigenvalues --    1.59098   1.60684   1.64005   1.66403   1.68090
 Alpha virt. eigenvalues --    1.69741   1.73883   1.79627   1.81070   1.87852
 Alpha virt. eigenvalues --    1.94313   1.99462   2.04141   2.14124   2.20890
 Alpha virt. eigenvalues --    2.22836   2.27801   2.32895   2.36235   2.36958
 Alpha virt. eigenvalues --    2.41990   2.42980   2.44279   2.46279   2.48941
 Alpha virt. eigenvalues --    2.51271   2.54471   2.58423   2.60465   2.62846
 Alpha virt. eigenvalues --    2.64416   2.67389   2.71137   2.72291   2.74356
 Alpha virt. eigenvalues --    2.76124   2.78994   2.81663   2.83938   2.89026
 Alpha virt. eigenvalues --    2.90541   2.91136   2.91810   2.93187   2.94791
 Alpha virt. eigenvalues --    2.97484   2.98266   3.00841   3.02554   3.04815
 Alpha virt. eigenvalues --    3.06694   3.07775   3.12405   3.12802   3.14541
 Alpha virt. eigenvalues --    3.15017   3.15383   3.16549   3.17507   3.18185
 Alpha virt. eigenvalues --    3.19600   3.21585   3.21643   3.24454   3.25026
 Alpha virt. eigenvalues --    3.27557   3.28524   3.33098   3.33623   3.38552
 Alpha virt. eigenvalues --    3.39465   3.41430   3.42137   3.43301   3.46161
 Alpha virt. eigenvalues --    3.48124   3.49514   3.51395   3.52300   3.53845
 Alpha virt. eigenvalues --    3.55460   3.56875   3.57689   3.60820   3.61832
 Alpha virt. eigenvalues --    3.63438   3.64322   3.64976   3.68827   3.70538
 Alpha virt. eigenvalues --    3.72633   3.78447   3.82611   3.83488   3.84672
 Alpha virt. eigenvalues --    3.85965   3.87061   3.89152   3.90453   3.93207
 Alpha virt. eigenvalues --    3.93585   3.94301   3.96573   3.96973   3.98238
 Alpha virt. eigenvalues --    3.99439   4.01374   4.02740   4.05984   4.07808
 Alpha virt. eigenvalues --    4.09627   4.10592   4.12061   4.14092   4.14908
 Alpha virt. eigenvalues --    4.16798   4.18229   4.19302   4.22234   4.23383
 Alpha virt. eigenvalues --    4.25113   4.26225   4.29036   4.30047   4.32346
 Alpha virt. eigenvalues --    4.33948   4.36362   4.37616   4.38629   4.42248
 Alpha virt. eigenvalues --    4.43717   4.43806   4.47696   4.49444   4.50945
 Alpha virt. eigenvalues --    4.55012   4.59065   4.63035   4.66013   4.69859
 Alpha virt. eigenvalues --    4.74165   4.75750   4.81038   4.81679   4.87578
 Alpha virt. eigenvalues --    4.89300   4.92902   4.95150   4.96538   4.99918
 Alpha virt. eigenvalues --    5.01519   5.02399   5.04327   5.04618   5.06070
 Alpha virt. eigenvalues --    5.09471   5.10953   5.15534   5.20622   5.22911
 Alpha virt. eigenvalues --    5.25935   5.28766   5.30299   5.31064   5.33656
 Alpha virt. eigenvalues --    5.35698   5.35946   5.39369   5.40461   5.44624
 Alpha virt. eigenvalues --    5.46958   5.49823   5.51807   5.52185   5.55578
 Alpha virt. eigenvalues --    5.59391   5.63232   5.65453   5.67917   5.68648
 Alpha virt. eigenvalues --    5.72320   5.79080   5.88628   5.92894   5.96478
 Alpha virt. eigenvalues --    6.01747   6.05911   6.07057   6.08833   6.10402
 Alpha virt. eigenvalues --    6.12545   6.25813   6.31415   6.38088   6.41884
 Alpha virt. eigenvalues --    6.64271   6.75012   6.76523   6.83375   6.96301
 Alpha virt. eigenvalues --    7.06260   7.08971   7.19269   7.43178   7.44564
 Alpha virt. eigenvalues --    7.59584   7.74327   9.90657  10.57930  12.53418
 Alpha virt. eigenvalues --   13.06812  13.41386  13.71858
  Beta  occ. eigenvalues --  -19.78311 -19.76703 -10.65953 -10.62389 -10.62018
  Beta  occ. eigenvalues --  -10.59823  -1.25303  -0.99031  -0.90072  -0.78296
  Beta  occ. eigenvalues --   -0.76643  -0.67663  -0.57372  -0.54401  -0.54162
  Beta  occ. eigenvalues --   -0.52911  -0.51345  -0.47552  -0.45682  -0.43125
  Beta  occ. eigenvalues --   -0.41704  -0.41281  -0.40491  -0.35298  -0.33256
  Beta virt. eigenvalues --   -0.04366   0.07934   0.09216   0.11432   0.12426
  Beta virt. eigenvalues --    0.13835   0.14037   0.15339   0.15630   0.16237
  Beta virt. eigenvalues --    0.18558   0.19159   0.22108   0.23275   0.26891
  Beta virt. eigenvalues --    0.29922   0.30497   0.31764   0.32125   0.32808
  Beta virt. eigenvalues --    0.34508   0.35569   0.37023   0.40206   0.43854
  Beta virt. eigenvalues --    0.46457   0.48428   0.49585   0.50881   0.51349
  Beta virt. eigenvalues --    0.51945   0.52657   0.53318   0.54694   0.55528
  Beta virt. eigenvalues --    0.55818   0.56522   0.57200   0.58296   0.59110
  Beta virt. eigenvalues --    0.60634   0.62975   0.65022   0.69072   0.69594
  Beta virt. eigenvalues --    0.72987   0.75636   0.77510   0.79069   0.79417
  Beta virt. eigenvalues --    0.83579   0.85779   0.86629   0.89494   0.92221
  Beta virt. eigenvalues --    0.92986   0.95438   0.97739   0.98624   1.03639
  Beta virt. eigenvalues --    1.04328   1.05015   1.05764   1.06358   1.09484
  Beta virt. eigenvalues --    1.09708   1.12212   1.12964   1.14428   1.15384
  Beta virt. eigenvalues --    1.17497   1.18745   1.19051   1.20261   1.21662
  Beta virt. eigenvalues --    1.23955   1.24816   1.26954   1.27657   1.29177
  Beta virt. eigenvalues --    1.30953   1.33065   1.34240   1.36566   1.38096
  Beta virt. eigenvalues --    1.38986   1.39539   1.40372   1.41344   1.43391
  Beta virt. eigenvalues --    1.47523   1.49404   1.50927   1.51746   1.54000
  Beta virt. eigenvalues --    1.56758   1.59434   1.60903   1.64300   1.66737
  Beta virt. eigenvalues --    1.68507   1.70448   1.74692   1.79862   1.81527
  Beta virt. eigenvalues --    1.90560   1.95096   2.00034   2.05113   2.14405
  Beta virt. eigenvalues --    2.22799   2.23458   2.28448   2.33076   2.36524
  Beta virt. eigenvalues --    2.37051   2.42608   2.43684   2.44999   2.46800
  Beta virt. eigenvalues --    2.49336   2.51567   2.54842   2.58596   2.60803
  Beta virt. eigenvalues --    2.63304   2.65064   2.67922   2.71339   2.73198
  Beta virt. eigenvalues --    2.74803   2.76525   2.79279   2.82155   2.84053
  Beta virt. eigenvalues --    2.89603   2.90803   2.91695   2.92059   2.93856
  Beta virt. eigenvalues --    2.94979   2.97812   2.99011   3.01065   3.02971
  Beta virt. eigenvalues --    3.04927   3.07465   3.08357   3.12589   3.13180
  Beta virt. eigenvalues --    3.14723   3.15420   3.16048   3.16917   3.18047
  Beta virt. eigenvalues --    3.18530   3.20165   3.21727   3.22031   3.25190
  Beta virt. eigenvalues --    3.25421   3.28314   3.28631   3.33479   3.34568
  Beta virt. eigenvalues --    3.38841   3.39955   3.41454   3.42501   3.43565
  Beta virt. eigenvalues --    3.46627   3.48442   3.50197   3.51466   3.52813
  Beta virt. eigenvalues --    3.54038   3.56000   3.57331   3.57948   3.60920
  Beta virt. eigenvalues --    3.62290   3.63720   3.64390   3.65153   3.69170
  Beta virt. eigenvalues --    3.70711   3.72971   3.78639   3.82812   3.83667
  Beta virt. eigenvalues --    3.85119   3.86102   3.87333   3.89536   3.90474
  Beta virt. eigenvalues --    3.93285   3.93690   3.94237   3.96720   3.97138
  Beta virt. eigenvalues --    3.98330   3.99713   4.01678   4.02813   4.05942
  Beta virt. eigenvalues --    4.07887   4.09762   4.10760   4.12292   4.14155
  Beta virt. eigenvalues --    4.14893   4.16931   4.18429   4.19344   4.22459
  Beta virt. eigenvalues --    4.23538   4.25326   4.26284   4.29221   4.30317
  Beta virt. eigenvalues --    4.32723   4.34483   4.36475   4.37884   4.39043
  Beta virt. eigenvalues --    4.42398   4.43867   4.44136   4.48047   4.49755
  Beta virt. eigenvalues --    4.51373   4.55539   4.59642   4.63827   4.66595
  Beta virt. eigenvalues --    4.70207   4.74467   4.76386   4.81431   4.81835
  Beta virt. eigenvalues --    4.88252   4.89550   4.93276   4.95352   4.96925
  Beta virt. eigenvalues --    5.00074   5.01728   5.02555   5.04512   5.04801
  Beta virt. eigenvalues --    5.06304   5.10322   5.11267   5.16023   5.21077
  Beta virt. eigenvalues --    5.23544   5.26692   5.29224   5.30547   5.31381
  Beta virt. eigenvalues --    5.33994   5.36002   5.36108   5.39954   5.40812
  Beta virt. eigenvalues --    5.45217   5.47247   5.49982   5.51895   5.52262
  Beta virt. eigenvalues --    5.55840   5.59654   5.63616   5.65700   5.68537
  Beta virt. eigenvalues --    5.68938   5.73107   5.79417   5.90117   5.92947
  Beta virt. eigenvalues --    5.96823   6.02853   6.06082   6.07268   6.09423
  Beta virt. eigenvalues --    6.10733   6.12885   6.26284   6.33513   6.38585
  Beta virt. eigenvalues --    6.43303   6.65308   6.76970   6.79020   6.84637
  Beta virt. eigenvalues --    6.97957   7.07807   7.09980   7.21475   7.43601
  Beta virt. eigenvalues --    7.46528   7.61411   7.74915   9.91556  10.58962
  Beta virt. eigenvalues --   12.54005  13.07317  13.41386  13.71872
          Condensed to atoms (all electrons):
               1          2          3          4          5          6
     1  C    4.843419   0.404985   0.415003   0.329253  -0.035378  -0.034808
     2  H    0.404985   0.617261  -0.038473  -0.038754  -0.003313  -0.004060
     3  H    0.415003  -0.038473   0.591723  -0.035798  -0.004235   0.006616
     4  C    0.329253  -0.038754  -0.035798   5.135257   0.406876   0.398436
     5  H   -0.035378  -0.003313  -0.004235   0.406876   0.541369  -0.028456
     6  H   -0.034808  -0.004060   0.006616   0.398436  -0.028456   0.563938
     7  C    0.000223  -0.000005   0.000010  -0.003327   0.000120   0.000327
     8  H    0.000253   0.000013   0.000005   0.000745  -0.000462  -0.002036
     9  H   -0.000009  -0.000002  -0.000001   0.000260  -0.000003  -0.000090
    10  H   -0.000085  -0.000002  -0.000003  -0.000156   0.000081   0.000214
    11  O   -0.002833  -0.000074  -0.000131   0.005906   0.000368   0.002417
    12  O    0.007554   0.000085   0.000998  -0.085792   0.000701  -0.000375
    13  H   -0.011484   0.002437  -0.002846   0.220944  -0.007770  -0.010655
    14  C    0.336561  -0.035205  -0.031983  -0.048768   0.006557  -0.004423
    15  H   -0.037328  -0.005616   0.007297  -0.004551  -0.000046   0.003691
    16  H   -0.034564  -0.005286  -0.005204   0.007396  -0.000308  -0.000115
    17  H   -0.031094   0.006816  -0.004469  -0.003637   0.000019  -0.000020
               7          8          9         10         11         12
     1  C    0.000223   0.000253  -0.000009  -0.000085  -0.002833   0.007554
     2  H   -0.000005   0.000013  -0.000002  -0.000002  -0.000074   0.000085
     3  H    0.000010   0.000005  -0.000001  -0.000003  -0.000131   0.000998
     4  C   -0.003327   0.000745   0.000260  -0.000156   0.005906  -0.085792
     5  H    0.000120  -0.000462  -0.000003   0.000081   0.000368   0.000701
     6  H    0.000327  -0.002036  -0.000090   0.000214   0.002417  -0.000375
     7  C    4.587565   0.391112   0.396501   0.407232   0.311174  -0.047207
     8  H    0.391112   0.690038  -0.033698  -0.062696  -0.050006  -0.002195
     9  H    0.396501  -0.033698   0.594151  -0.030233  -0.027066   0.006884
    10  H    0.407232  -0.062696  -0.030233   0.636266  -0.040927   0.004616
    11  O    0.311174  -0.050006  -0.027066  -0.040927   7.949509   0.068247
    12  O   -0.047207  -0.002195   0.006884   0.004616   0.068247   8.077025
    13  H    0.000859   0.004690  -0.000278   0.000154  -0.029643   0.198336
    14  C   -0.000231  -0.000331   0.000085   0.000051   0.002583  -0.003896
    15  H    0.000023  -0.000011   0.000013   0.000000   0.000069  -0.000026
    16  H   -0.000005  -0.000009   0.000000   0.000002   0.000209  -0.000125
    17  H    0.000191   0.000155  -0.000184   0.000045   0.001712   0.004712
              13         14         15         16         17
     1  C   -0.011484   0.336561  -0.037328  -0.034564  -0.031094
     2  H    0.002437  -0.035205  -0.005616  -0.005286   0.006816
     3  H   -0.002846  -0.031983   0.007297  -0.005204  -0.004469
     4  C    0.220944  -0.048768  -0.004551   0.007396  -0.003637
     5  H   -0.007770   0.006557  -0.000046  -0.000308   0.000019
     6  H   -0.010655  -0.004423   0.003691  -0.000115  -0.000020
     7  C    0.000859  -0.000231   0.000023  -0.000005   0.000191
     8  H    0.004690  -0.000331  -0.000011  -0.000009   0.000155
     9  H   -0.000278   0.000085   0.000013   0.000000  -0.000184
    10  H    0.000154   0.000051   0.000000   0.000002   0.000045
    11  O   -0.029643   0.002583   0.000069   0.000209   0.001712
    12  O    0.198336  -0.003896  -0.000026  -0.000125   0.004712
    13  H    0.423320  -0.003452  -0.000611   0.000274   0.001644
    14  C   -0.003452   4.853416   0.407182   0.409261   0.410148
    15  H   -0.000611   0.407182   0.607352  -0.033324  -0.029255
    16  H    0.000274   0.409261  -0.033324   0.590747  -0.029215
    17  H    0.001644   0.410148  -0.029255  -0.029215   0.552288
          Atomic-Atomic Spin Densities.
               1          2          3          4          5          6
     1  C   -0.023248   0.008508   0.003976  -0.033847   0.002085   0.002771
     2  H    0.008508   0.057301  -0.005402  -0.014234  -0.001898  -0.001727
     3  H    0.003976  -0.005402   0.009960  -0.005907   0.001046   0.000280
     4  C   -0.033847  -0.014234  -0.005907   0.709930   0.002406   0.003280
     5  H    0.002085  -0.001898   0.001046   0.002406  -0.024092   0.003222
     6  H    0.002771  -0.001727   0.000280   0.003280   0.003222  -0.026257
     7  C   -0.000093   0.000012  -0.000006   0.001163  -0.000056  -0.000421
     8  H    0.000167  -0.000027   0.000015  -0.003954   0.000283   0.001190
     9  H   -0.000004   0.000001  -0.000000   0.000100  -0.000003  -0.000016
    10  H   -0.000042   0.000003  -0.000005   0.001103  -0.000053  -0.000152
    11  O   -0.000985   0.000071  -0.000087   0.011534  -0.000258  -0.001397
    12  O    0.007156  -0.000618   0.001224  -0.090453   0.002492   0.003392
    13  H   -0.003270   0.000376  -0.000728   0.065266   0.002131   0.003233
    14  C    0.005004  -0.004152   0.001893  -0.002378   0.000075   0.000137
    15  H    0.000726  -0.000652   0.000101  -0.000228   0.000029   0.000123
    16  H    0.000292   0.000758  -0.000231   0.000117  -0.000005  -0.000076
    17  H   -0.000942   0.000456  -0.000425   0.002208  -0.000088  -0.000233
               7          8          9         10         11         12
     1  C   -0.000093   0.000167  -0.000004  -0.000042  -0.000985   0.007156
     2  H    0.000012  -0.000027   0.000001   0.000003   0.000071  -0.000618
     3  H   -0.000006   0.000015  -0.000000  -0.000005  -0.000087   0.001224
     4  C    0.001163  -0.003954   0.000100   0.001103   0.011534  -0.090453
     5  H   -0.000056   0.000283  -0.000003  -0.000053  -0.000258   0.002492
     6  H   -0.000421   0.001190  -0.000016  -0.000152  -0.001397   0.003392
     7  C   -0.004940   0.003411   0.000643  -0.003042   0.001165  -0.002401
     8  H    0.003411   0.002602  -0.000731  -0.001622  -0.000839   0.003692
     9  H    0.000643  -0.000731  -0.001947   0.001056   0.000090  -0.000204
    10  H   -0.003042  -0.001622   0.001056   0.004776  -0.000835  -0.000285
    11  O    0.001165  -0.000839   0.000090  -0.000835   0.044493  -0.040014
    12  O   -0.002401   0.003692  -0.000204  -0.000285  -0.040014   0.583609
    13  H    0.001358  -0.003348   0.000035   0.001368   0.009660  -0.050131
    14  C    0.000020   0.000014  -0.000005  -0.000000  -0.000144   0.000483
    15  H   -0.000005   0.000008  -0.000001  -0.000001  -0.000052   0.000069
    16  H    0.000000  -0.000001   0.000000   0.000000   0.000011  -0.000043
    17  H   -0.000016  -0.000024   0.000017   0.000013   0.000438  -0.001407
              13         14         15         16         17
     1  C   -0.003270   0.005004   0.000726   0.000292  -0.000942
     2  H    0.000376  -0.004152  -0.000652   0.000758   0.000456
     3  H   -0.000728   0.001893   0.000101  -0.000231  -0.000425
     4  C    0.065266  -0.002378  -0.000228   0.000117   0.002208
     5  H    0.002131   0.000075   0.000029  -0.000005  -0.000088
     6  H    0.003233   0.000137   0.000123  -0.000076  -0.000233
     7  C    0.001358   0.000020  -0.000005   0.000000  -0.000016
     8  H   -0.003348   0.000014   0.000008  -0.000001  -0.000024
     9  H    0.000035  -0.000005  -0.000001   0.000000   0.000017
    10  H    0.001368  -0.000000  -0.000001   0.000000   0.000013
    11  O    0.009660  -0.000144  -0.000052   0.000011   0.000438
    12  O   -0.050131   0.000483   0.000069  -0.000043  -0.001407
    13  H   -0.104209   0.000339  -0.000058   0.000101   0.000570
    14  C    0.000339   0.005304   0.000080  -0.000477  -0.000284
    15  H   -0.000058   0.000080  -0.000160  -0.000008  -0.000298
    16  H    0.000101  -0.000477  -0.000008  -0.001690   0.000444
    17  H    0.000570  -0.000284  -0.000298   0.000444   0.000235
 Mulliken charges and spin densities:
               1          2
     1  C   -0.149669  -0.031745
     2  H    0.099192   0.038777
     3  H    0.101490   0.005703
     4  C   -0.284290   0.646109
     5  H    0.123880  -0.012685
     6  H    0.109398  -0.012652
     7  C   -0.044564  -0.003207
     8  H    0.064432   0.000838
     9  H    0.093671  -0.000970
    10  H    0.085440   0.002285
    11  O   -0.191513   0.022851
    12  O   -0.229543   0.416559
    13  H    0.214082  -0.077307
    14  C   -0.297556   0.005910
    15  H    0.085140  -0.000327
    16  H    0.100264  -0.000807
    17  H    0.120145   0.000667
 Sum of Mulliken charges =  -0.00000   1.00000
 Mulliken charges and spin densities with hydrogens summed into heavy atoms:
               1          2
     1  C    0.051014   0.012735
     4  C   -0.051012   0.620773
     7  C    0.198979  -0.001054
    11  O   -0.191513   0.022851
    12  O   -0.015461   0.339252
    14  C    0.007993   0.005443
 APT charges:
               1
     1  C   -0.012797
     2  H   -0.040603
     3  H   -0.020187
     4  C    0.435421
     5  H   -0.058685
     6  H   -0.064633
     7  C    0.457192
     8  H   -0.043896
     9  H   -0.009283
    10  H   -0.034842
    11  O   -0.448349
    12  O    0.142815
    13  H   -0.326097
    14  C    0.058861
    15  H   -0.023397
    16  H   -0.022674
    17  H    0.011157
 Sum of APT charges =  -0.00000
 APT charges with hydrogens summed into heavy atoms:
               1
     1  C   -0.073587
     4  C    0.312103
     7  C    0.369170
    11  O   -0.448349
    12  O   -0.183283
    14  C    0.023946
 Electronic spatial extent (au):  <R**2>=            918.1328
 Charge=             -0.0000 electrons
 Dipole moment (field-independent basis, Debye):
    X=             -0.4606    Y=             -1.1340    Z=             -1.8747  Tot=              2.2389
 Quadrupole moment (field-independent basis, Debye-Ang):
   XX=            -34.2024   YY=            -39.6113   ZZ=            -40.2248
   XY=              0.1974   XZ=             -3.0250   YZ=              0.0223
 Traceless Quadrupole moment (field-independent basis, Debye-Ang):
   XX=              3.8104   YY=             -1.5984   ZZ=             -2.2119
   XY=              0.1974   XZ=             -3.0250   YZ=              0.0223
 Octapole moment (field-independent basis, Debye-Ang**2):
  XXX=             24.3497  YYY=             -1.8054  ZZZ=              1.4900  XYY=              2.1084
  XXY=              0.4299  XXZ=             -2.9609  XZZ=              3.0406  YZZ=              0.8478
  YYZ=              1.2758  XYZ=             -0.7929
 Hexadecapole moment (field-independent basis, Debye-Ang**3):
 XXXX=           -832.3514 YYYY=           -213.6562 ZZZZ=           -123.7413 XXXY=              3.9548
 XXXZ=             -6.8616 YYYX=              7.1990 YYYZ=             -1.9695 ZZZX=              0.3405
 ZZZY=             -1.4374 XXYY=           -183.5119 XXZZ=           -165.6811 YYZZ=            -56.8345
 XXYZ=             -2.6094 YYXZ=             -2.6179 ZZXY=              2.9080
 N-N= 2.529450756157D+02 E-N=-1.228728528317D+03  KE= 3.074492513203D+02
  Exact polarizability:  97.077   9.036  62.609   2.729   0.873  57.271
 Approx polarizability:  80.071   8.311  68.289   2.676  -0.044  68.448
                          Isotropic Fermi Contact Couplings
        Atom                 a.u.       MegaHertz       Gauss      10(-4) cm-1
     1  C(13)             -0.01224     -13.76429      -4.91144      -4.59127
     2  H(1)               0.02079      92.91141      33.15310      30.99191
     3  H(1)               0.00391      17.46152       6.23071       5.82454
     4  C(13)              0.09275     104.26553      37.20453      34.77924
     5  H(1)              -0.00424     -18.94360      -6.75955      -6.31890
     6  H(1)              -0.00374     -16.72636      -5.96838      -5.57931
     7  C(13)             -0.00343      -3.85721      -1.37635      -1.28663
     8  H(1)               0.00218       9.76493       3.48437       3.25723
     9  H(1)              -0.00012      -0.52476      -0.18725      -0.17504
    10  H(1)               0.00047       2.11930       0.75622       0.70692
    11  O(17)              0.01393      -8.44646      -3.01391      -2.81743
    12  O(17)              0.04770     -28.91496     -10.31758      -9.64499
    13  H(1)              -0.02264    -101.21622     -36.11646     -33.76210
    14  C(13)              0.00519       5.83820       2.08321       1.94741
    15  H(1)              -0.00019      -0.84109      -0.30012      -0.28056
    16  H(1)              -0.00038      -1.68358      -0.60074      -0.56158
    17  H(1)              -0.00003      -0.15409      -0.05498      -0.05140
 --------------------------------------------------------
       Center         ----  Spin Dipole Couplings  ----
                      3XX-RR        3YY-RR        3ZZ-RR
 --------------------------------------------------------
     1   Atom        0.028974     -0.014279     -0.014696
     2   Atom        0.009315     -0.004122     -0.005194
     3   Atom        0.005205     -0.006614      0.001409
     4   Atom        0.257893     -0.252459     -0.005435
     5   Atom       -0.020270      0.043277     -0.023007
     6   Atom       -0.004704     -0.035413      0.040117
     7   Atom        0.004495     -0.003440     -0.001055
     8   Atom        0.002845     -0.004944      0.002098
     9   Atom        0.002689     -0.002747      0.000058
    10   Atom        0.007735     -0.004201     -0.003534
    11   Atom        0.115764     -0.100278     -0.015486
    12   Atom        0.306834     -0.737452      0.430618
    13   Atom        0.096575     -0.076093     -0.020482
    14   Atom       -0.003180      0.011208     -0.008028
    15   Atom       -0.001745      0.004159     -0.002413
    16   Atom        0.000465      0.002420     -0.002884
    17   Atom       -0.001367      0.007059     -0.005691
 --------------------------------------------------------
                        XY            XZ            YZ
 --------------------------------------------------------
     1   Atom       -0.008167      0.009795      0.001995
     2   Atom       -0.001478      0.003024      0.003317
     3   Atom       -0.002233     -0.009238      0.003224
     4   Atom        0.266616      0.474465      0.200587
     5   Atom        0.009339      0.020490     -0.015675
     6   Atom        0.020903     -0.012599     -0.009213
     7   Atom        0.001560     -0.007307      0.000813
     8   Atom       -0.000551     -0.005985      0.002256
     9   Atom        0.002165     -0.003904     -0.001272
    10   Atom       -0.001045     -0.003461      0.000424
    11   Atom        0.164568      0.225180      0.173050
    12   Atom        0.446888      1.272999      0.465159
    13   Atom        0.101265      0.149192      0.066074
    14   Atom       -0.005112      0.000369     -0.002104
    15   Atom       -0.003057      0.002096     -0.003872
    16   Atom       -0.003292     -0.000020      0.000695
    17   Atom       -0.004340      0.000648      0.001788
 --------------------------------------------------------


 ---------------------------------------------------------------------------------
              Anisotropic Spin Dipole Couplings in Principal Axis System
 ---------------------------------------------------------------------------------

       Atom             a.u.   MegaHertz   Gauss  10(-4) cm-1        Axes

              Baa    -0.0198    -2.660    -0.949    -0.887 -0.2528 -0.6350  0.7300
     1 C(13)  Bbb    -0.0125    -1.675    -0.598    -0.559 -0.0060  0.7555  0.6551
              Bcc     0.0323     4.335     1.547     1.446  0.9675 -0.1613  0.1948
 
              Baa    -0.0086    -4.596    -1.640    -1.533 -0.1798 -0.6219  0.7621
     2 H(1)   Bbb    -0.0014    -0.723    -0.258    -0.241 -0.0679  0.7808  0.6211
              Bcc     0.0100     5.318     1.898     1.774  0.9814 -0.0599  0.1826
 
              Baa    -0.0079    -4.241    -1.513    -1.415 -0.1998  0.8487 -0.4897
     3 H(1)   Bbb    -0.0055    -2.934    -1.047    -0.979  0.6245  0.4954  0.6038
              Bcc     0.0134     7.175     2.560     2.393  0.7551 -0.1851 -0.6290
 
              Baa    -0.3675   -49.313   -17.596   -16.449  0.6288 -0.6046 -0.4890
     4 C(13)  Bbb    -0.3642   -48.878   -17.441   -16.304  0.1893  0.7290 -0.6578
              Bcc     0.7317    98.191    35.037    32.753  0.7542  0.3211  0.5728
 
              Baa    -0.0458   -24.414    -8.711    -8.144 -0.6571  0.1970  0.7276
     5 H(1)   Bbb    -0.0014    -0.742    -0.265    -0.248  0.7500  0.0739  0.6573
              Bcc     0.0471    25.156     8.976     8.391  0.0758  0.9776 -0.1963
 
              Baa    -0.0461   -24.582    -8.772    -8.200 -0.4432  0.8959  0.0310
     6 H(1)   Bbb    -0.0000    -0.007    -0.002    -0.002  0.8420  0.4042  0.3572
              Bcc     0.0461    24.589     8.774     8.202 -0.3075 -0.1844  0.9335
 
              Baa    -0.0068    -0.915    -0.327    -0.305  0.5321 -0.4220  0.7340
     7 C(13)  Bbb    -0.0028    -0.371    -0.133    -0.124  0.1902  0.9043  0.3821
              Bcc     0.0096     1.287     0.459     0.429  0.8250  0.0638 -0.5615
 
              Baa    -0.0059    -3.141    -1.121    -1.048 -0.2349  0.8751 -0.4232
     8 H(1)   Bbb    -0.0029    -1.526    -0.545    -0.509  0.6625  0.4627  0.5891
              Bcc     0.0087     4.667     1.665     1.557  0.7113 -0.1420 -0.6884
 
              Baa    -0.0035    -1.873    -0.668    -0.625 -0.3708  0.9256 -0.0757
     9 H(1)   Bbb    -0.0027    -1.431    -0.511    -0.477  0.4944  0.2657  0.8276
              Bcc     0.0062     3.304     1.179     1.102  0.7862  0.2695 -0.5562
 
              Baa    -0.0046    -2.438    -0.870    -0.813  0.2140 -0.4126  0.8854
    10 H(1)   Bbb    -0.0042    -2.263    -0.808    -0.755  0.1881  0.9069  0.3771
              Bcc     0.0088     4.701     1.677     1.568  0.9585 -0.0859 -0.2717
 
              Baa    -0.2367    17.129     6.112     5.714  0.0703  0.7497 -0.6580
    11 O(17)  Bbb    -0.1601    11.587     4.134     3.865  0.7064 -0.5032 -0.4978
              Bcc     0.3968   -28.716   -10.246    -9.579  0.7043  0.4298  0.5650
 
              Baa    -0.9070    65.627    23.417    21.891  0.7302 -0.3947 -0.5577
    12 O(17)  Bbb    -0.8998    65.109    23.233    21.718  0.1399  0.8853 -0.4434
              Bcc     1.8068  -130.736   -46.650   -43.609  0.6688  0.2458  0.7017
 
              Baa    -0.1243   -66.320   -23.665   -22.122 -0.6123  0.6281  0.4802
    13 H(1)   Bbb    -0.1197   -63.852   -22.784   -21.299 -0.1601 -0.6933  0.7026
              Bcc     0.2440   130.172    46.448    43.421  0.7742  0.3534  0.5251
 
              Baa    -0.0083    -1.109    -0.396    -0.370  0.0486  0.1199  0.9916
    14 C(13)  Bbb    -0.0048    -0.642    -0.229    -0.214  0.9524  0.2936 -0.0822
              Bcc     0.0131     1.751     0.625     0.584 -0.3010  0.9484 -0.0999
 
              Baa    -0.0045    -2.385    -0.851    -0.796 -0.3899  0.2585  0.8838
    15 H(1)   Bbb    -0.0029    -1.571    -0.561    -0.524  0.8425  0.4875  0.2291
              Bcc     0.0074     3.956     1.412     1.320 -0.3717  0.8340 -0.4079
 
              Baa    -0.0031    -1.639    -0.585    -0.547 -0.2372 -0.2607  0.9358
    16 H(1)   Bbb    -0.0018    -0.985    -0.351    -0.328  0.7694  0.5377  0.3448
              Bcc     0.0049     2.624     0.936     0.875 -0.5931  0.8018  0.0730
 
              Baa    -0.0064    -3.388    -1.209    -1.130 -0.3160 -0.2252  0.9217
    17 H(1)   Bbb    -0.0027    -1.428    -0.510    -0.476  0.8700  0.3187  0.3761
              Bcc     0.0090     4.817     1.719     1.607 -0.3785  0.9207  0.0952
 

 ---------------------------------------------------------------------------------

 Calling FoFJK, ICntrl=  10100127 FMM=F ISym2X=0 I1Cent= 0 IOpClX= 1 NMat=1 NMatS=1 NMatT=0.
 ***** Axes restored to original set *****
 -------------------------------------------------------------------
 Center     Atomic                   Forces (Hartrees/Bohr)
 Number     Number              X              Y              Z
 -------------------------------------------------------------------
      1        6          -0.000160176   -0.000032233    0.000266121
      2        1           0.000161410    0.000023116   -0.000258698
      3        1           0.000001282   -0.000000266    0.000000510
      4        6          -0.000071673    0.000003184    0.000094891
      5        1           0.000002061   -0.000000268    0.000001906
      6        1          -0.000000857   -0.000000742   -0.000000069
      7        6           0.000000352    0.000000371    0.000000500
      8        1          -0.000001411   -0.000000854   -0.000001887
      9        1           0.000000435   -0.000000432   -0.000000271
     10        1          -0.000000337   -0.000000132   -0.000000512
     11        8           0.000004354   -0.000000214    0.000004425
     12        8           0.000069288    0.000004533   -0.000111361
     13        1           0.000001700    0.000000790    0.000004343
     14        6           0.000001316    0.000003210    0.000005074
     15        1          -0.000002089   -0.000000087   -0.000001488
     16        1          -0.000000111   -0.000000302   -0.000000683
     17        1          -0.000005545    0.000000326   -0.000002802
 -------------------------------------------------------------------
 Cartesian Forces:  Max     0.000266121 RMS     0.000066061
 FormGI is forming the generalized inverse of G from B-inverse, IUseBI=4.

 GradGradGradGradGradGradGradGradGradGradGradGradGradGradGradGradGradGrad
 Berny optimization.
 Internal  Forces:  Max     0.000216777 RMS     0.000053846
 Search for a saddle point.
 Step number   1 out of a maximum of  102
 All quantities printed in internal units (Hartrees-Bohrs-Radians)
 Swapping is turned off.
 Second derivative matrix not updated -- analytic derivatives used.
 ITU=  0
     Eigenvalues ---   -0.07498   0.00061   0.00191   0.00263   0.00629
     Eigenvalues ---    0.01582   0.02253   0.03136   0.03207   0.03380
     Eigenvalues ---    0.03573   0.03837   0.04574   0.04648   0.06832
     Eigenvalues ---    0.07133   0.08493   0.08530   0.08999   0.10163
     Eigenvalues ---    0.11257   0.12362   0.12996   0.14098   0.15197
     Eigenvalues ---    0.16177   0.16606   0.17789   0.18435   0.21138
     Eigenvalues ---    0.25369   0.29414   0.30795   0.31935   0.32421
     Eigenvalues ---    0.33497   0.33784   0.34018   0.34293   0.34443
     Eigenvalues ---    0.34637   0.34936   0.35133   0.35498   0.40245
 Eigenvectors required to have negative eigenvalues:
                          R7        R13       R12       A20       D8
   1                   -0.67901   0.67271  -0.15381   0.09451  -0.08232
                          D2        D4        D5        D1        D7
   1                   -0.07988   0.07748  -0.06776   0.06536   0.06292
 RFO step:  Lambda0=7.479527414D-11 Lambda=-3.34532088D-05.
 Linear search not attempted -- option 19 set.
 Iteration  1 RMS(Cart)=  0.05084152 RMS(Int)=  0.00114288
 Iteration  2 RMS(Cart)=  0.00160051 RMS(Int)=  0.00002438
 Iteration  3 RMS(Cart)=  0.00000239 RMS(Int)=  0.00002436
 Iteration  4 RMS(Cart)=  0.00000000 RMS(Int)=  0.00002436
 Variable       Old X    -DE/DX   Delta X   Delta X   Delta X     New X
                                 (Linear)    (Quad)   (Total)
    R1        2.07317   0.00000   0.00000  -0.00010  -0.00010   2.07308
    R2        2.06182   0.00000   0.00000   0.00030   0.00030   2.06212
    R3        2.83833  -0.00000   0.00000  -0.00001  -0.00001   2.83833
    R4        2.88449   0.00000   0.00000  -0.00064  -0.00064   2.88385
    R5        2.05176  -0.00000   0.00000   0.00017   0.00017   2.05193
    R6        2.05511   0.00000   0.00000  -0.00018  -0.00018   2.05494
    R7        2.56634  -0.00001   0.00000  -0.00073  -0.00073   2.56561
    R8        2.06224  -0.00000   0.00000  -0.00001  -0.00001   2.06223
    R9        2.05622  -0.00000   0.00000  -0.00002  -0.00002   2.05620
   R10        2.05735   0.00000   0.00000  -0.00000  -0.00000   2.05735
   R11        2.68296   0.00000   0.00000  -0.00003  -0.00003   2.68293
   R12        2.66421   0.00000   0.00000  -0.00014  -0.00013   2.66407
   R13        2.20824  -0.00001   0.00000   0.00000   0.00000   2.20825
   R14        2.06012   0.00000   0.00000   0.00015   0.00015   2.06028
   R15        2.05728  -0.00000   0.00000  -0.00001  -0.00001   2.05727
   R16        2.05590   0.00000   0.00000   0.00015   0.00015   2.05605
    A1        1.84875  -0.00007   0.00000  -0.00206  -0.00206   1.84669
    A2        1.89131  -0.00003   0.00000   0.00146   0.00145   1.89276
    A3        1.90929   0.00010   0.00000   0.00319   0.00319   1.91248
    A4        1.91285  -0.00003   0.00000  -0.00185  -0.00186   1.91100
    A5        1.92218   0.00001   0.00000  -0.00049  -0.00049   1.92169
    A6        1.97493   0.00001   0.00000  -0.00030  -0.00031   1.97462
    A7        2.03582  -0.00000   0.00000  -0.00081  -0.00088   2.03495
    A8        2.01852   0.00001   0.00000   0.00165   0.00162   2.02014
    A9        1.84227  -0.00001   0.00000  -0.00344  -0.00347   1.83880
   A10        1.97388  -0.00000   0.00000  -0.00044  -0.00037   1.97351
   A11        1.78741  -0.00008   0.00000  -0.00674  -0.00673   1.78068
   A12        1.75837   0.00009   0.00000   0.00996   0.00998   1.76835
   A13        1.91784  -0.00000   0.00000  -0.00001  -0.00001   1.91782
   A14        1.91632  -0.00000   0.00000   0.00008   0.00008   1.91640
   A15        1.93511   0.00000   0.00000  -0.00010  -0.00010   1.93500
   A16        1.92460  -0.00000   0.00000   0.00010   0.00010   1.92470
   A17        1.83661  -0.00000   0.00000   0.00006   0.00006   1.83667
   A18        1.93215   0.00000   0.00000  -0.00011  -0.00011   1.93204
   A19        1.88060   0.00000   0.00000   0.00041   0.00041   1.88101
   A20        1.82183  -0.00001   0.00000   0.00135   0.00135   1.82318
   A21        1.93399  -0.00000   0.00000  -0.00020  -0.00020   1.93379
   A22        1.93772   0.00000   0.00000   0.00051   0.00051   1.93822
   A23        1.93240  -0.00000   0.00000   0.00017   0.00017   1.93258
   A24        1.88374   0.00000   0.00000  -0.00038  -0.00038   1.88335
   A25        1.88115  -0.00000   0.00000   0.00025   0.00025   1.88140
   A26        1.89297   0.00000   0.00000  -0.00037  -0.00037   1.89259
   A27        3.16972   0.00017   0.00000   0.01219   0.01221   3.18194
   A28        3.08887   0.00020   0.00000   0.01074   0.01073   3.09960
    D1       -1.13072   0.00010   0.00000   0.03639   0.03638  -1.09433
    D2        1.25519   0.00011   0.00000   0.03670   0.03670   1.29189
    D3       -3.10133   0.00022   0.00000   0.04738   0.04738  -3.05395
    D4        0.87914  -0.00001   0.00000   0.03375   0.03374   0.91288
    D5       -3.01814  -0.00001   0.00000   0.03406   0.03406  -2.98408
    D6       -1.09148   0.00010   0.00000   0.04474   0.04474  -1.04674
    D7        3.03188  -0.00001   0.00000   0.03151   0.03151   3.06340
    D8       -0.86539  -0.00001   0.00000   0.03182   0.03182  -0.83357
    D9        1.06127   0.00010   0.00000   0.04251   0.04251   1.10377
   D10       -1.08317  -0.00002   0.00000   0.00465   0.00464  -1.07853
   D11        1.00994  -0.00002   0.00000   0.00436   0.00436   1.01430
   D12        3.11363  -0.00002   0.00000   0.00435   0.00435   3.11797
   D13       -3.10833   0.00000   0.00000   0.00557   0.00557  -3.10277
   D14       -1.01521   0.00000   0.00000   0.00528   0.00528  -1.00993
   D15        1.08847   0.00000   0.00000   0.00527   0.00527   1.09374
   D16        1.02726   0.00002   0.00000   0.00856   0.00857   1.03583
   D17        3.12038   0.00002   0.00000   0.00828   0.00828   3.12866
   D18       -1.05912   0.00002   0.00000   0.00827   0.00827  -1.05085
   D19       -1.64781  -0.00005   0.00000   0.05404   0.05407  -1.59374
   D20        2.49737   0.00004   0.00000   0.06333   0.06320   2.56057
   D21        0.45057   0.00003   0.00000   0.06132   0.06142   0.51199
   D22        1.13618   0.00000   0.00000   0.00061   0.00061   1.13679
   D23       -3.07433   0.00000   0.00000   0.00057   0.00057  -3.07375
   D24       -0.99514   0.00000   0.00000   0.00066   0.00066  -0.99448
   D25       -1.60786   0.00000   0.00000   0.00276   0.00276  -1.60510
         Item               Value     Threshold  Converged?
 Maximum Force            0.000217     0.000450     YES
 RMS     Force            0.000054     0.000300     YES
 Maximum Displacement     0.142426     0.001800     NO 
 RMS     Displacement     0.051261     0.001200     NO 
 Predicted change in Energy=-1.713665D-05
 GradGradGradGradGradGradGradGradGradGradGradGradGradGradGradGradGradGrad

                          Input orientation:                          
 ---------------------------------------------------------------------
 Center     Atomic      Atomic             Coordinates (Angstroms)
 Number     Number       Type             X           Y           Z
 ---------------------------------------------------------------------
      1          6           0        2.286326   -0.427842    0.154190
      2          1           0        2.882326   -1.317248    0.393365
      3          1           0        2.923436    0.196800   -0.474051
      4          6           0        1.079970   -0.860618   -0.628974
      5          1           0        1.266928   -1.325689   -1.592191
      6          1           0        0.300794   -1.360476   -0.058426
      7          6           0       -2.209799    1.017269   -0.595096
      8          1           0       -2.157192   -0.068721   -0.688676
      9          1           0       -2.893239    1.286868    0.207511
     10          1           0       -2.542120    1.452849   -1.535899
     11          8           0       -0.952650    1.553203   -0.210353
     12          8           0       -0.042570    1.311678   -1.259574
     13          1           0        0.452364    0.288835   -0.986903
     14          6           0        1.932070    0.311595    1.441287
     15          1           0        1.327638   -0.317388    2.095268
     16          1           0        2.829254    0.597658    1.987554
     17          1           0        1.360197    1.211239    1.223631
 ---------------------------------------------------------------------
                    Distance matrix (angstroms):
                    1          2          3          4          5
     1  C    0.000000
     2  H    1.097025   0.000000
     3  H    1.091226   1.745406   0.000000
     4  C    1.501977   2.121833   2.130845   0.000000
     5  H    2.212498   2.559690   2.512415   1.085833   0.000000
     6  H    2.203939   2.621124   3.078328   1.087427   1.813025
     7  C    4.781727   5.688300   5.199800   3.788164   4.309441
     8  H    4.536987   5.303431   5.092087   3.333150   3.757779
     9  H    5.456278   6.338227   5.957054   4.593234   5.231766
    10  H    5.450439   6.389061   5.707668   4.392514   4.715112
    11  O    3.814236   4.828147   4.115022   3.183287   3.888961
    12  O    3.232401   4.265967   3.264536   2.525198   2.963296
    13  H    2.275772   3.223253   2.525408   1.357661   1.906980
    14  C    1.526067   2.157372   2.159746   2.527080   3.510712
    15  H    2.167733   2.512618   3.067957   2.788894   3.823312
    16  H    2.169710   2.492212   2.495807   3.468829   4.353699
    17  H    2.165181   3.065855   2.520898   2.793432   3.791248
                    6          7          8          9         10
     6  H    0.000000
     7  C    3.499251   0.000000
     8  H    2.847375   1.091283   0.000000
     9  H    4.157043   1.088096   1.783967   0.000000
    10  H    4.263787   1.088704   1.783572   1.786144   0.000000
    11  O    3.175488   1.419745   2.076139   2.002856   2.072090
    12  O    2.949756   2.285845   2.589026   3.206130   2.518736
    13  H    1.898754   2.787694   2.650767   3.689953   3.259333
    14  C    2.775971   4.669037   4.626386   5.075133   5.494039
    15  H    2.604004   4.640348   4.467239   4.894188   5.594116
    16  H    3.796502   5.677870   5.698326   6.032453   6.480565
    17  H    3.062633   4.011267   4.203242   4.373779   4.785546
                   11         12         13         14         15
    11  O    0.000000
    12  O    1.409767   0.000000
    13  H    2.043458   1.168554   0.000000
    14  C    3.548396   3.491993   2.843616   0.000000
    15  H    3.743623   3.973197   3.260888   1.090251   0.000000
    16  H    4.477349   4.393294   3.819996   1.088659   1.761750
    17  H    2.742720   2.853795   2.561533   1.088014   1.759976
                   16         17
    16  H    0.000000
    17  H    1.765839   0.000000
 Stoichiometry    C4H11O2(2)
 Framework group  C1[X(C4H11O2)]
 Deg. of freedom    45
 Full point group                 C1      NOp   1
 Largest Abelian subgroup         C1      NOp   1
 Largest concise Abelian subgroup C1      NOp   1
                         Standard orientation:                         
 ---------------------------------------------------------------------
 Center     Atomic      Atomic             Coordinates (Angstroms)
 Number     Number       Type             X           Y           Z
 ---------------------------------------------------------------------
      1          6           0       -2.161062   -0.313856    0.083178
      2          1           0       -3.081151   -0.632971   -0.421862
      3          1           0       -2.314769   -0.525457    1.142599
      4          6           0       -1.022161   -1.145407   -0.433893
      5          1           0       -1.075407   -2.213450   -0.245527
      6          1           0       -0.680603   -0.906279   -1.438210
      7          6           0        2.560868    0.077673   -0.561020
      8          1           0        2.147352   -0.600224   -1.309591
      9          1           0        3.029352    0.928754   -1.051056
     10          1           0        3.287578   -0.450757    0.053742
     11          8           0        1.530719    0.631289    0.243951
     12          8           0        0.943827   -0.421118    0.975689
     13          1           0        0.054955   -0.780719    0.307772
     14          6           0       -1.954662    1.183348   -0.128153
     15          1           0       -1.838960    1.412412   -1.187771
     16          1           0       -2.804119    1.751929    0.246439
     17          1           0       -1.058486    1.524846    0.385675
 ---------------------------------------------------------------------
 Rotational constants (GHZ):           5.6519523           1.5356117           1.4134639
 Standard basis: CC-pVTZ (5D, 7F)
 There are   375 symmetry adapted cartesian basis functions of A   symmetry.
 There are   334 symmetry adapted basis functions of A   symmetry.
   334 basis functions,   499 primitive gaussians,   375 cartesian basis functions
    26 alpha electrons       25 beta electrons
       nuclear repulsion energy       252.9933936976 Hartrees.
 NAtoms=   17 NActive=   17 NUniq=   17 SFac= 1.00D+00 NAtFMM=   60 NAOKFM=F Big=F
 Integral buffers will be    131072 words long.
 Raffenetti 2 integral format.
 Two-electron integral symmetry is turned on.
 Nuclear repulsion after empirical dispersion term =      252.9854648635 Hartrees.
 One-electron integrals computed using PRISM.
 NBasis=   334 RedAO= T EigKep=  7.60D-04  NBF=   334
 NBsUse=   334 1.00D-06 EigRej= -1.00D+00 NBFU=   334
 Initial guess from the checkpoint file:  "/localscratch/353444/Gau-88212.chk"
 B after Tr=    -0.000000    0.000000    0.000000
         Rot=    0.999592   -0.028426   -0.002423    0.001345 Ang=  -3.27 deg.
 Initial guess <Sx>= 0.0000 <Sy>= 0.0000 <Sz>= 0.5000 <S**2>= 0.7684 S= 0.5091
 ExpMin= 1.03D-01 ExpMax= 1.53D+04 ExpMxC= 5.22D+02 IAcc=3 IRadAn=         5 AccDes= 0.00D+00
 Harris functional with IExCor=  419 and IRadAn=       5 diagonalized for initial guess.
 HarFok:  IExCor=  419 AccDes= 0.00D+00 IRadAn=         5 IDoV= 1 UseB2=F ITyADJ=14
 ICtDFT=  3500011 ScaDFX=  1.000000  1.000000  1.000000  1.000000
 FoFCou: FMM=F IPFlag=           0 FMFlag=      100000 FMFlg1=           0
         NFxFlg=           0 DoJE=T BraDBF=F KetDBF=T FulRan=T
         wScrn=  0.000000 ICntrl=       500 IOpCl=  0 I1Cent=   200000004 NGrid=           0
         NMat0=    1 NMatS0=      1 NMatT0=    0 NMatD0=    1 NMtDS0=    0 NMtDT0=    0
[...]
   yy         0.614578D+02      0.910711D+01      0.101330D+02
   zx         0.116410D+02      0.172503D+01      0.191935D+01
   zy        -0.349133D+01     -0.517362D+00     -0.575643D+00
   zz         0.613594D+02      0.909252D+01      0.101168D+02

 ----------------------------------------------------------------------
 1\1\GINC-N144\Freq\UB2PLYPD3-FC\CC-pVTZ\C4H11O2(2)\ROOT\24-Jun-2019\0\
 \#N Geom=AllCheck Guess=TCheck SCRF=Check GenChk UB2PLYPD3(FC)/CC-pVTZ
  Freq\\Title Card Required\\0,2\C,2.2850212816,-0.4254522221,0.1545579
 429\H,2.8844852632,-1.3125332389,0.3936240747\H,2.9209638361,0.2034896
 568,-0.4705635622\C,1.08296859,-0.8622034495,-0.633081182\H,1.27509972
 17,-1.326769676,-1.595543332\H,0.3033913194,-1.3648925656,-0.065599543
 3\C,-2.2046714295,1.0199899869,-0.5880608329\H,-2.1535517327,-0.067109
 355,-0.6686097925\H,-2.8809696376,1.3000304389,0.2170134058\H,-2.54476
 81487,1.444156936,-1.5312918867\O,-0.9438693493,1.5596935873,-0.220896
 9641\O,-0.0432004544,1.3050402401,-1.2750667359\H,0.4531953113,0.28470
 46147,-0.9954368852\C,1.9235732003,0.309673539,1.4421577678\H,1.320866
 6159,-0.3238702031,2.0933476899\H,2.8178020183,0.5994206476,1.99131909
 19\H,1.3473975942,1.206644063,1.2247917437\\Version=ES64L-G16RevB.01\S
 tate=2-A\HF=-308.7913064\MP2=-309.183473\PUHF=-308.7974885\PMP2-0=-309
 .1839838\S2=0.768386\S2-1=0.742743\S2A=0.75015\RMSD=5.704e-10\RMSF=2.6
 56e-07\ZeroPoint=0.1420342\Thermal=0.1510458\Dipole=-0.2207572,-0.7607
 712,0.1320857\DipoleDeriv=-0.0758636,0.0725726,-0.0665014,0.2535723,-0
 .0419594,0.0828866,-0.0445327,0.0203193,0.0732931,-0.0871245,0.1327199
 ,-0.0437723,0.0298271,-0.0376513,-0.0268928,-0.1145377,0.066036,0.0053
 203,-0.0128713,-0.0567006,0.0608363,-0.1176891,0.0145861,0.0311479,0.0
 577667,0.0402074,-0.0573395,0.5746102,-0.4005149,0.1001474,-0.6224536,
 0.594812,-0.137341,0.2543703,-0.2519221,0.1452885,-0.0193024,0.0467569
 ,0.0034257,0.0867556,-0.0665028,-0.0722519,-0.0596129,-0.0287008,-0.09
 32366,-0.1150321,0.0009176,0.0113216,0.0325969,-0.0718332,0.0325628,0.
 0463464,0.0607987,-0.0074397,0.765798,-0.1474668,0.1021925,0.1743447,0
 .2925127,0.0297861,0.1543075,-0.0460498,0.3104435,-0.0417861,0.091657,
 0.0001843,-0.0765562,-0.1307482,-0.0139732,-0.0535613,0.0133831,0.0412
 562,-0.0697687,0.0319083,0.047556,0.0093759,0.0670392,-0.0461663,0.084
 3892,-0.0434396,-0.0240955,-0.0385733,0.0187645,-0.0170083,0.012038,0.
 0157693,0.0753073,-0.1502769,0.0834956,-0.0814441,-0.8569239,0.4026309
 ,-0.1764701,-0.0571031,-0.3189445,0.0097013,0.453901,-0.4934666,-0.179
 1693,0.3113066,-0.6185274,0.0409157,-0.567137,0.3617037,-0.1369793,-0.
 4697752,0.4125681,-0.2293267,-0.3473701,0.4305357,-0.0683412,0.8814944
 ,-0.70929,0.1978744,-0.163385,0.1993557,0.0694098,0.0688965,0.0438407,
 -0.0080496,0.0229228,0.0411395,-0.0486121,0.045806,-0.0639845,0.065814
 7,-0.0061604,-0.0667693,0.09615,-0.0709415,-0.0318478,0.0746309,0.0588
 994,0.0319373,-0.0347285,-0.0926165,-0.0543005,-0.1091861,-0.047445,0.
 0576444,-0.0506553,-0.0915569,-0.0395332,-0.0322585,0.0427816,0.071975
 5,0.0265995,0.0563978,-0.0364297,-0.0010254,-0.0085479,0.0389954,0.028
 2122\Polar=86.4428984,-18.76411,70.146543,4.7798197,-1.4457165,60.3680
 252\PG=C01 [X(C4H11O2)]\NImag=1\\0.51480567,0.01082747,0.53117722,-0.0
 3005389,-0.04300714,0.49556197,-0.11442208,0.11064185,-0.02792847,0.12
 812174,0.10240206,-0.20503454,0.04394634,-0.11869202,0.22674612,-0.029
 94225,0.04953116,-0.05648042,0.03439661,-0.04764622,0.06520492,-0.1305
 6487,-0.08616042,0.08497366,0.01011523,0.01049086,-0.00978611,0.146518
 53,-0.08860962,-0.13713448,0.08612949,-0.01491045,-0.01710401,0.015447
 73,0.09681631,0.14732966,0.08519021,0.08540641,-0.13303474,0.00437458,
 0.00519786,-0.00484476,-0.09168064,-0.09201933,0.14700123,-0.16216660,
 -0.03934531,-0.05051048,-0.02024332,-0.00297510,-0.01111150,-0.0205497
 1,-0.00421286,-0.01146464,0.44586605,-0.04643863,-0.06652744,-0.028491
 70,0.01767538,0.00611872,0.01064005,-0.01598129,-0.00560728,-0.0109374
 1,0.14166541,0.27034291,-0.04698939,-0.02243373,-0.11629997,-0.0102562
 1,-0.00085332,-0.00589667,0.01469202,0.00532335,0.01134122,-0.09162196
 ,0.08801046,0.54558942,0.00938911,-0.01215555,-0.02393770,0.00074159,0
 .00066641,0.00068286,0.00088818,0.00012210,0.00102360,-0.05892038,0.01
 307989,0.05500480,0.05711753,0.00340438,-0.00104812,-0.00346924,-0.000
 69753,0.00016002,-0.00076482,0.00073575,-0.00000854,0.00023648,0.01163
 624,-0.08473634,-0.12053822,-0.01559254,0.08699273,0.00643108,-0.00666
 734,-0.01087514,0.00026819,0.00049319,0.00050198,-0.00055047,-0.000154
 55,0.00066578,0.04905189,-0.10774448,-0.26281864,-0.05156009,0.1204422
 6,0.28205953,-0.01589215,-0.01477686,0.01605261,0.00080464,0.00072080,
 0.00013162,-0.00352375,-0.00085007,-0.00386713,-0.17846267,-0.09590751
 ,0.10219593,-0.00154963,-0.00399450,0.00220395,0.19572511,-0.00295380,
 -0.00084136,0.00414739,-0.00096140,-0.00018599,-0.00015686,-0.00201498
 ,0.00066675,-0.00061442,-0.10868126,-0.09218360,0.06451048,0.01012723,
 0.00877003,-0.00866362,0.10804687,0.09526206,-0.01221448,-0.00864787,0
 .01063279,0.00038138,0.00029908,0.00017669,-0.00339558,-0.00154789,-0.
 00121957,0.10823734,0.06064644,-0.12975283,0.01714011,0.01395905,-0.01
 039752,-0.11247914,-0.06864149,0.13151478,0.00079182,-0.00246711,0.000
 59320,0.00072415,0.00053884,0.00056148,-0.00011207,0.00027089,-0.00002
 255,-0.00558977,0.00864183,-0.00472532,0.00107750,-0.00160254,0.000731
 00,0.00047119,-0.00090571,0.00059726,0.46982309,0.00079038,-0.00182919
 ,0.00066249,0.00034203,0.00027872,0.00027631,-0.00033275,0.00000482,-0
 .00010196,-0.00131160,0.00507498,-0.00175595,0.00033520,-0.00042743,0.
 00015968,0.00004900,-0.00055084,0.00069503,-0.05259582,0.56443408,0.00
 025182,-0.00067843,0.00006211,0.00015656,0.00018832,0.00021172,-0.0001
 3718,0.00008157,-0.00001636,-0.00133378,0.00163607,-0.00083694,0.00022
 536,-0.00028754,0.00018211,0.00010686,-0.00027299,0.00018963,-0.037943
 27,0.00144609,0.61229113,-0.00011062,0.00021247,-0.00020005,-0.0000514
 2,-0.00007487,-0.00006202,0.00004768,-0.00003802,0.00000982,0.00119038
 ,-0.00121887,0.00074533,-0.00003090,0.00032428,-0.00017577,-0.00052271
 ,0.00074593,-0.00029053,-0.05078736,0.03064748,0.00447462,0.05841416,-
 0.00011097,0.00053959,-0.00017448,-0.00011994,-0.00009916,-0.00007089,
 0.00007941,-0.00001971,0.00004800,0.00084320,-0.00182450,0.00108564,-0
 .00022886,0.00028993,-0.00014002,0.00018509,0.00017044,-0.00020681,0.0
 2555873,-0.30322137,-0.01320303,-0.01717292,0.33173960,-0.00006928,0.0
 0029566,-0.00010869,-0.00007168,-0.00006813,-0.00006952,0.00004797,-0.
 00002615,-0.00000082,0.00046120,-0.00095265,0.00041649,0.00009745,0.00
 012574,-0.00011404,-0.00019512,0.00034020,-0.00003915,0.00080335,-0.01
 338229,-0.05407645,0.00300037,0.02016824,0.05055652,-0.00016603,0.0003
 8504,-0.00002546,-0.00009287,-0.00009553,-0.00011758,0.00007584,-0.000
 05049,-0.00002227,0.00056164,-0.00075451,0.00022988,-0.00006204,0.0001
 0662,-0.00008138,-0.00010607,0.00020360,-0.00005431,-0.14437534,0.0408
 0983,0.11423831,0.00040971,0.00118633,0.00134912,0.16824679,-0.0000343
 3,0.00007204,-0.00005643,0.00000022,-0.00001997,-0.00001529,0.00004011
 ,-0.00000552,0.00002717,0.00024433,-0.00013598,0.00007157,-0.00004300,
 0.00002467,-0.00000683,-0.00010020,0.00014428,-0.00014451,0.04665510,-
 0.07102242,-0.05710970,0.01938817,-0.00570044,-0.02369406,-0.04407057,
 0.06877727,0.00002015,-0.00004938,0.00001565,0.00001452,0.00000892,0.0
 0000932,0.00000500,0.00000486,0.00000133,-0.00005787,0.00011465,-0.000
 04923,-0.00000047,-0.00000833,-0.00000267,0.00000499,0.00002013,-0.000
 01274,0.12446887,-0.05424517,-0.20409498,-0.00034023,0.00068413,-0.000
 24184,-0.13401475,0.05926078,0.21233994,-0.00006040,0.00019949,-0.0000
 6641,-0.00006941,-0.00002220,-0.00003024,-0.00000322,-0.00002495,-0.00
 000129,0.00050061,-0.00081303,0.00048608,-0.00011246,0.00019737,-0.000
 06965,-0.00003370,0.00007681,-0.00004079,-0.06646960,0.03150559,-0.056
 01139,0.00144962,0.00281362,-0.00275889,0.00827163,-0.00875375,0.01669
 421,0.08029095,0.00002334,0.00013928,-0.00012392,-0.00003138,-0.000010
 87,-0.00000185,0.00005380,0.00001582,0.00002809,-0.00011921,-0.0004288
 5,0.00028901,0.00003838,0.00002140,-0.00002972,0.00004659,0.00008922,-
 0.00012055,0.03271266,-0.09893236,0.09803776,0.00873931,-0.01219961,0.
 02841846,-0.00305648,0.00401741,-0.00863416,-0.02924900,0.09905885,-0.
 00018892,0.00039285,-0.00011142,-0.00010175,-0.00007089,-0.00008558,0.
 00002298,-0.00003285,0.00000354,0.00073430,-0.00127237,0.00045244,-0.0
 0010759,0.00016807,-0.00007082,-0.00010145,0.00014287,-0.00007321,-0.0
 6391416,0.09449726,-0.24953060,0.00187074,-0.00176905,0.00314395,-0.00
 668447,0.00998779,-0.01706443,0.07703329,-0.10050708,0.26808794,-0.002
 98013,0.00624004,-0.00096419,-0.00145216,-0.00141005,-0.00128494,0.000
 21688,-0.00055683,-0.00000569,0.01506872,-0.02217596,0.00983386,-0.002
 06002,0.00334912,-0.00172898,-0.00138470,0.00310979,-0.00124785,-0.162
 76473,-0.06364804,-0.07221481,-0.01530689,-0.01364062,-0.00223314,-0.0
 2467061,-0.00864475,-0.00413289,-0.02962396,-0.01046691,-0.01010016,0.
 36169710,-0.00066139,0.00041706,-0.00016268,-0.00001181,0.00008745,-0.
 00006524,0.00028800,0.00005672,-0.00006145,-0.00075067,-0.00086827,-0.
 00274691,0.00078739,-0.00081700,0.00081766,-0.00061164,0.00048598,0.00
 001717,-0.04547828,-0.09470771,-0.04003354,-0.04143531,-0.01310974,-0.
 01362590,0.00778376,0.00313011,0.00254625,0.00369294,0.00887415,-0.001
 76641,0.05617709,0.14096542,0.00325066,-0.00650277,0.00126697,0.001574
 85,0.00168087,0.00153922,0.00004077,0.00057801,0.00016500,-0.01746556,
 0.02645314,-0.00958135,0.00140840,-0.00341798,0.00177323,0.00243478,-0
 .00473129,0.00128009,-0.03967494,-0.03021556,-0.10191113,-0.00491634,-
 0.00551087,0.00067052,0.02595110,0.01024201,0.00565101,-0.03189398,-0.
 01719712,-0.00713894,-0.02115757,0.09339763,0.24993734,0.00617359,-0.0
 0825533,0.00248597,0.00162211,0.00185726,0.00183088,0.00009157,0.00037
 610,0.00031880,-0.04103527,0.07314630,-0.02633128,0.00272256,-0.006065
 04,0.00299204,0.00404316,-0.00627132,0.00116877,-0.04860283,0.00750189
 ,0.04689481,0.00656124,0.00259333,0.00015844,-0.00765843,-0.00405731,-
 0.00270188,0.00662016,0.00150723,0.00243594,-0.10374629,0.00593741,0.0
 5351716,0.15024477,-0.00707380,0.00792080,-0.00365140,-0.00070554,-0.0
 0167468,-0.00137169,0.00073726,-0.00013749,-0.00022815,0.06433373,-0.1
 0797541,0.03959882,-0.00389274,0.00740300,-0.00393534,-0.00371919,0.00
 691418,-0.00194420,0.00142741,0.00302621,0.01049820,-0.00273103,0.0015
 8812,0.00142433,-0.00231544,0.00102848,0.00047153,-0.00100587,-0.00050
 679,-0.00129209,0.01288161,-0.04068486,-0.01535219,-0.00918509,0.08039
 919,-0.00179414,0.00540375,-0.00070280,-0.00149558,-0.00147641,-0.0013
 5957,-0.00013296,-0.00067893,-0.00014753,0.00204403,0.00027530,0.00451
 822,-0.00109871,0.00273019,-0.00027108,-0.00192280,0.00289602,-0.00089
 421,0.01634653,0.00194720,-0.00204681,-0.00342479,-0.00074531,-0.00037
 795,-0.00093620,0.00132468,0.00330564,-0.00327562,-0.00030277,0.002907
 95,0.09878071,-0.01826435,-0.15305922,-0.09558365,-0.03579867,0.190015
 25,-0.01562300,0.01682701,-0.00862211,-0.00253355,-0.00218468,-0.00274
 627,0.00028277,-0.00016592,-0.00022050,0.01436963,-0.05684888,0.022909
 70,-0.00447789,0.00957504,-0.00355245,-0.00131190,-0.00121552,0.001962
 65,0.00592534,0.00601236,0.00119345,-0.00129784,-0.00204127,-0.0005747
 2,-0.00039486,-0.00063995,0.00003696,-0.00079310,-0.00021839,-0.000924
 61,-0.03221028,0.01396677,0.02721704,0.02273949,-0.04840316,-0.0070443
 6,0.01503990,0.01187966,-0.01314896,0.00581090,0.00053787,0.00385546,0
 .00180759,-0.00171168,0.00081863,0.00004173,-0.06478953,0.08448590,-0.
 03796642,0.00840296,-0.01742173,0.00646732,0.00976558,-0.01877903,0.00
 512661,-0.01294193,-0.00211753,-0.00031284,0.00265574,0.00189478,0.001
 00875,-0.00013926,-0.00033050,-0.00017073,0.00140259,-0.00013198,0.001
 54449,0.03937859,-0.00403752,-0.04984817,-0.05975504,0.04252901,0.0427
 0539,0.06547614,-0.07748817,-0.00823478,0.00900481,-0.00484178,-0.0015
 8967,-0.00105731,-0.00083797,0.00064741,-0.00024128,0.00029678,0.01866
 083,-0.02696632,-0.01333807,0.00427384,-0.00751304,-0.00021635,-0.0043
 8508,0.01036866,-0.00342569,0.00248382,0.00018201,-0.00032198,-0.00074
 443,-0.00022241,0.00021792,0.00009078,0.00009245,0.00014319,-0.0000775
 7,0.00014032,-0.00057337,0.00691016,-0.02035978,0.00990872,0.01322695,
 0.01044697,-0.04173275,-0.03089828,0.02596206,0.05457883,-0.08776887,0
 .01319698,0.02784553,-0.00413631,0.00891039,0.01677338,-0.00429469,0.0
 1061142,0.01619577,0.00803521,-0.01467664,-0.02618837,-0.00519410,-0.0
 0166320,-0.00436769,0.00105856,0.00037215,-0.00026940,0.00014324,-0.00
 005054,0.00002734,-0.00000608,0.00002855,-0.00003503,-0.00002386,0.000
 01737,0.00000857,-0.00001136,-0.00000458,-0.00001059,-0.00065465,0.000
 18790,0.00031570,0.00086768,-0.00029258,-0.00014620,-0.00013107,-0.000
 05614,-0.00060650,0.57509485,0.01289739,-0.10672366,-0.04512464,0.0069
 0179,-0.01400170,-0.02603195,-0.00400725,0.01049249,0.01637144,0.00009
 491,-0.00479823,-0.01117693,-0.00084505,0.00025453,-0.00041799,0.00106
 077,0.00001365,-0.00017587,0.00047194,0.00034544,-0.00026422,-0.000055
 83,-0.00013035,-0.00005940,-0.00002308,0.00003464,0.00002345,-0.000213
 23,-0.00011281,-0.00007223,-0.00054042,0.00014322,-0.00097259,-0.00107
 614,0.00047752,0.00035004,0.00078252,-0.00055899,0.00120355,0.01083558
 ,0.55242201,0.02714411,-0.04673426,-0.15793786,-0.00095970,0.00307099,
 0.00449299,0.00442100,-0.01078949,-0.01784781,-0.00153047,-0.00947043,
 -0.02255338,-0.00138891,-0.00126275,-0.00003616,0.00102775,0.00122422,
 0.00202048,-0.00038853,-0.00025297,-0.00016672,0.00006135,0.00009438,0
 .00009199,0.00008414,-0.00000711,-0.00000085,0.00002258,0.00002086,0.0
 0006133,0.00096112,0.00024025,-0.00117258,-0.00158213,0.00138738,0.000
 69522,0.00166636,-0.00275829,0.00064564,0.02682207,-0.04028836,0.50228
 654,-0.00577957,-0.00486636,0.00522797,-0.00023729,-0.00005155,-0.0001
 6308,0.00058721,0.00144372,0.00115472,0.00069004,0.00055318,-0.0011310
 7,0.00003439,0.00012259,-0.00001818,0.00047127,-0.00002005,0.00030791,
 -0.00007610,-0.00001765,-0.00002851,-0.00000026,-0.00000441,-0.0000074
 5,-0.00000019,0.00000397,-0.00000184,0.00000848,-0.00000498,0.00001585
 ,0.00023055,-0.00006592,0.00002021,-0.00022814,0.00007334,-0.00002695,
 0.00011112,-0.00012175,0.00004791,-0.12728640,-0.08538068,0.08417998,0
 .13537834,0.01039042,0.01022049,-0.01172997,-0.00008938,0.00108242,0.0
 0080561,0.00085179,-0.00076178,-0.00378996,0.00056287,0.00090535,0.000
 39929,0.00023123,0.00002924,0.00017795,-0.00012237,0.00002647,0.000540
 32,-0.00007599,-0.00004546,0.00005455,0.00003116,0.00003054,0.00005035
 ,0.00005687,-0.00002144,0.00000105,0.00002319,0.00002232,-0.00000882,-
 0.00004622,0.00017017,-0.00026551,0.00016997,0.00014856,0.00022027,-0.
 00001805,-0.00026923,0.00000529,-0.08622862,-0.14061394,0.09243115,0.0
 9415256,0.15012193,0.01604953,0.01741834,-0.01873351,-0.00027692,-0.00
 008005,0.00124459,0.00115180,-0.00370365,-0.00433582,0.00112566,0.0012
 2989,0.00135086,-0.00022455,-0.00026325,0.00045322,-0.00097087,-0.0005
 1422,-0.00009203,0.00000528,0.00009540,-0.00000235,-0.00001425,-0.0000
 3391,-0.00004790,-0.00003508,0.00001023,-0.00000211,-0.00000163,-0.000
 02993,0.00000758,-0.00001683,-0.00015176,0.00016072,-0.00004053,-0.000
 18375,-0.00012806,0.00007360,0.00035630,-0.00005173,0.08363257,0.09117
 148,-0.13776156,-0.09544800,-0.09848681,0.15187466,0.00873573,0.003477
 70,0.00624373,0.00053607,-0.00054835,-0.00055486,0.00050895,-0.0002574
 0,-0.00073162,0.00010819,0.00072353,0.00135222,0.00049901,0.00017944,0
 .00038057,0.00022346,0.00030158,0.00009216,0.00024801,0.00007983,-0.00
 001011,-0.00000710,-0.00001642,0.00001621,-0.00000261,-0.00001161,0.00
 001445,-0.00006202,-0.00001009,-0.00004991,-0.00020173,0.00011084,-0.0
 0032689,-0.00021476,-0.00004298,0.00008376,0.00003387,0.00003589,0.000
 25351,-0.23185157,-0.05804517,-0.11030846,-0.01455589,-0.00337523,-0.0
 0878514,0.24956078,-0.01425958,-0.00512846,-0.00714010,-0.00043833,0.0
 0004004,0.00070056,0.00026554,0.00061275,0.00043646,0.00204139,-0.0016
 7116,-0.00301950,-0.00087351,0.00015762,-0.00077304,0.00033302,0.00018
 693,0.00019116,-0.00004390,-0.00011000,0.00009646,0.00000786,0.0000301
 6,0.00000144,-0.00001197,-0.00000110,-0.00000520,0.00005591,0.00003729
 ,0.00001434,-0.00013968,0.00000608,0.00060120,0.00062759,-0.00019252,-
 0.00032753,-0.00031346,0.00035530,-0.00030348,-0.05677009,-0.06617375,
 -0.03374321,-0.01600671,-0.00558973,-0.01052336,0.06295679,0.06813925,
 -0.02455210,-0.00678416,-0.01371324,0.00006703,0.00019110,0.00130325,-
 0.00021457,0.00096202,0.00063810,0.00359919,-0.00310463,-0.00452344,-0
 .00162124,-0.00050798,-0.00089127,-0.00005812,-0.00002085,0.00013639,0
 .00020347,0.00003896,0.00003621,-0.00002342,-0.00001910,-0.00004302,-0
 .00004496,0.00000968,0.00000665,-0.00002598,-0.00001192,-0.00002640,-0
 .00033448,0.00000240,0.00043320,0.00039980,-0.00035366,-0.00033204,-0.
 00004052,0.00049703,-0.00001360,-0.10852927,-0.03371449,-0.11250769,0.
 01684224,0.00451736,0.01063135,0.11944320,0.04023055,0.12293503,-0.004
 36159,0.00601889,-0.00111393,0.00057289,0.00046773,0.00142200,-0.00028
 453,0.00003607,-0.00025119,0.00057725,-0.00067021,-0.00020623,-0.00006
 245,-0.00001547,0.00004592,-0.00001011,0.00004008,0.00010451,-0.000426
 50,-0.00011718,0.00010993,0.00004840,0.00004712,0.00001120,-0.00001271
 ,0.00000620,-0.00001776,0.00009777,0.00003971,0.00007052,-0.00015710,0
 .00008292,-0.00029540,-0.00020060,-0.00008597,-0.00037307,0.00027139,-
 0.00001968,-0.00005891,-0.12384058,0.11714195,-0.03023225,0.01065243,-
 0.01651421,0.00377536,-0.01355837,0.02256912,-0.00511028,0.13069441,0.
 00752702,-0.01307027,0.00243511,0.00055865,-0.00023802,-0.00308420,-0.
 00015046,0.00078118,-0.00004096,0.00076345,-0.00017078,0.00120237,-0.0
 0015955,0.00035600,-0.00002510,-0.00012536,-0.00018916,-0.00004566,-0.
 00016611,-0.00019994,0.00012328,-0.00002558,0.00002173,-0.00002458,-0.
 00001473,0.00000847,-0.00002278,0.00011452,0.00004753,0.00004412,0.000
 13323,-0.00011125,0.00106119,0.00094819,-0.00026332,-0.00025886,-0.000
 59055,0.00034455,-0.00074250,0.11558203,-0.23107005,0.04683764,0.01019
 069,-0.01545590,0.00368904,-0.00555835,0.00930131,-0.00193232,-0.12902
 708,0.24990793,0.01570166,-0.02594789,0.00530009,0.00144624,-0.0038243
 5,-0.00511021,-0.00010510,0.00066708,0.00133443,0.00118182,-0.00006602
 ,0.00198187,0.00008284,0.00037136,0.00005785,-0.00017879,-0.00003421,-
 0.00004389,-0.00012550,-0.00004652,0.00003140,0.00002959,0.00001551,0.
 00002198,0.00007312,0.00000755,-0.00000387,0.00001727,0.00002452,0.000
 01003,-0.00106431,0.00021666,0.00007720,0.00080990,0.00028391,-0.00039
 024,-0.00043595,-0.00027169,-0.00043778,-0.03146788,0.04917873,-0.0603
 0958,-0.01097170,0.01507789,-0.00456790,-0.00711282,0.01356327,-0.0040
 6948,0.03211959,-0.04921580,0.06611811\\-0.00000013,-0.00000011,0.0000
 0012,-0.00000006,-0.00000017,0.00000033,-0.00000007,-0.00000025,0.0000
 0009,-0.00000030,-0.00000009,0.00000031,0.00000015,-0.00000047,0.00000
 043,-0.00000010,-0.00000006,0.00000057,-0.00000003,0.00000009,-0.00000
 022,0.00000002,0.00000004,0.00000006,0.00000008,0.00000030,-0.00000036
 ,0.00000013,-0.00000017,-0.00000039,-0.00000018,0.00000015,-0.00000079
 ,0.00000029,-0.00000022,-0.00000014,0.00000020,-0.00000038,0.00000016,
 -0.00000005,0.00000068,-0.00000035,-0.00000006,0.00000036,0.00000023,0
 .00000002,0.00000025,-0.00000004,0.00000011,0.00000004,-0.00000001\\\@


 THE THINKER DIES, BUT HIS THOUGHTS ARE BEYOND THE 
 REACH OF DESTRUCTION.  MEN ARE MORTAL; BUT IDEAS 
 ARE IMMORTAL.
                              -- WALTER LIPPMANN
 Job cpu time:       2 days  2 hours 39 minutes 54.3 seconds.
 Elapsed time:       0 days  1 hours 18 minutes 16.3 seconds.
 File lengths (MBytes):  RWF=  75938 Int=      0 D2E=      0 Chk=     18 Scr=      1
 Normal termination of Gaussian 16 at Mon Jun 24 21:09:22 2019.
