 Entering Gaussian System, Link 0=g16
 Initial command:
 /ichec/packages/gaussian/16b01/l1.exe "/localscratch/341085/Gau-59923.inp" -scrdir="/localscratch/341085/"
 Entering Link 1 = /ichec/packages/gaussian/16b01/l1.exe PID=     60926.
  
 Copyright (c) 1988-2017, Gaussian, Inc.  All Rights Reserved.
  
 This is part of the Gaussian(R) 16 program.  It is based on
 the Gaussian(R) 09 system (copyright 2009, Gaussian, Inc.),
 the Gaussian(R) 03 system (copyright 2003, Gaussian, Inc.),
 the Gaussian(R) 98 system (copyright 1998, Gaussian, Inc.),
 the Gaussian(R) 94 system (copyright 1995, Gaussian, Inc.),
 the Gaussian 92(TM) system (copyright 1992, Gaussian, Inc.),
 the Gaussian 90(TM) system (copyright 1990, Gaussian, Inc.),
 the Gaussian 88(TM) system (copyright 1988, Gaussian, Inc.),
 the Gaussian 86(TM) system (copyright 1986, Carnegie Mellon
 University), and the Gaussian 82(TM) system (copyright 1983,
 Carnegie Mellon University). Gaussian is a federally registered
 trademark of Gaussian, Inc.
  
 This software contains proprietary and confidential information,
 including trade secrets, belonging to Gaussian, Inc.
  
 This software is provided under written license and may be
 used, copied, transmitted, or stored only in accord with that
 written license.
  
 The following legend is applicable only to US Government
 contracts under FAR:
  
                    RESTRICTED RIGHTS LEGEND
  
 Use, reproduction and disclosure by the US Government is
 subject to restrictions as set forth in subparagraphs (a)
 and (c) of the Commercial Computer Software - Restricted
 Rights clause in FAR 52.227-19.
  
 Gaussian, Inc.
 340 Quinnipiac St., Bldg. 40, Wallingford CT 06492
  
  
 ---------------------------------------------------------------
 Warning -- This program may not be used in any manner that
 competes with the business of Gaussian, Inc. or will provide
 assistance to any competitor of Gaussian, Inc.  The licensee
 of this program is prohibited from giving any competitor of
 Gaussian, Inc. access to this program.  By using this program,
 the user acknowledges that Gaussian, Inc. is engaged in the
 business of creating and licensing software in the field of
 computational chemistry and represents and warrants to the
 licensee that it is not a competitor of Gaussian, Inc. and that
 it will not use this program in any manner prohibited above.
 ---------------------------------------------------------------
  

 Cite this work as:
 Gaussian 16, Revision B.01,
 M. J. Frisch, G. W. Trucks, H. B. Schlegel, G. E. Scuseria, 
 M. A. Robb, J. R. Cheeseman, G. Scalmani, V. Barone, 
 G. A. Petersson, H. Nakatsuji, X. Li, M. Caricato, A. V. Marenich, 
 J. Bloino, B. G. Janesko, R. Gomperts, B. Mennucci, H. P. Hratchian, 
 J. V. Ortiz, A. F. Izmaylov, J. L. Sonnenberg, D. Williams-Young, 
 F. Ding, F. Lipparini, F. Egidi, J. Goings, B. Peng, A. Petrone, 
 T. Henderson, D. Ranasinghe, V. G. Zakrzewski, J. Gao, N. Rega, 
 G. Zheng, W. Liang, M. Hada, M. Ehara, K. Toyota, R. Fukuda, 
 J. Hasegawa, M. Ishida, T. Nakajima, Y. Honda, O. Kitao, H. Nakai, 
 T. Vreven, K. Throssell, J. A. Montgomery, Jr., J. E. Peralta, 
 F. Ogliaro, M. J. Bearpark, J. J. Heyd, E. N. Brothers, K. N. Kudin, 
 V. N. Staroverov, T. A. Keith, R. Kobayashi, J. Normand, 
 K. Raghavachari, A. P. Rendell, J. C. Burant, S. S. Iyengar, 
 J. Tomasi, M. Cossi, J. M. Millam, M. Klene, C. Adamo, R. Cammi, 
 J. W. Ochterski, R. L. Martin, K. Morokuma, O. Farkas, 
 J. B. Foresman, and D. J. Fox, Gaussian, Inc., Wallingford CT, 2016.
 
 ******************************************
 Gaussian 16:  ES64L-G16RevB.01 20-Dec-2017
                 5-Jun-2019 
 ******************************************
 %mem=80GB
 %nproc=40
 Will use up to   40 processors via shared memory.
 ----------------------------------------------------------------------
 # opt=(calcfc,ts,noeigentest,maxcyc=500) freq=noraman uB2PLYPD3/cc-pvt
 z
 ----------------------------------------------------------------------
 1/5=1,6=500,10=4,11=1,18=20,38=1/1,3;
 2/9=110,12=2,17=6,18=5,40=1/2;
 3/5=16,6=1,11=2,25=1,30=1,71=2,74=-60,116=2,140=1/1,2,3;
 4//1;
 5/5=2,38=5/2;
 8/6=3,8=1,10=1,19=11,30=-1/1;
 9/15=3,16=-3/6;
 11/6=1,8=1,15=11,17=12,24=-1,27=1,28=-2,29=300,32=6,42=3/1,2,10;
 10/6=2,21=1/2;
 8/6=4,8=1,10=1,19=11,30=-1/11,4;
 10/5=1,20=4/2;
 11/12=2,14=11,16=1,17=2,28=-2,42=3,76=2/2,10,12;
 6/7=2,8=2,9=2,10=2/1;
 7/10=1,12=2,25=1,44=2/1,2,3,16;
 1/5=1,6=500,10=4,11=1,18=20/3(2);
 2/9=110/2;
 99//99;
 2/9=110/2;
 3/5=16,6=1,11=2,25=1,30=1,71=1,74=-60,116=2/1,2,3;
 4/5=5,16=3,69=1/1;
 5/5=2,38=5/2;
 8/6=4,10=1/1;
 9/15=2,16=-3/6;
 10/5=1/2;
 7/12=2/1,2,3,16;
 1/5=1,6=500,11=1,18=20/3(-8);
 2/9=110/2;
 6/7=2,8=2,9=2,10=2/1;
 99/9=10/99;
 -------------------
 Title Card Required
 -------------------
 Symbolic Z-matrix:
 Charge =  0 Multiplicity = 2
 C                     1.50224  -0.67208   0.1777 
 H                     0.78799  -1.44807   0.46514 
 H                     2.2408   -1.08358  -0.50759 
 H                     1.99016  -0.27251   1.06636 
 O                     0.85072   0.35887  -0.53496 
 O                    -0.04235   0.97587   0.3222 
 C                    -2.10471  -0.42426  -0.04762 
 H                    -2.89832   0.30287  -0.16855 
 H                    -1.78683  -0.91915  -0.95817 
 H                    -0.9994    0.37871   0.19786 
 H                    -2.18647  -1.05819   0.82657 
 
 Add virtual bond connecting atoms H10        and C7         Dist= 2.62D+00.

 GradGradGradGradGradGradGradGradGradGradGradGradGradGradGradGradGradGrad
 Berny optimization.
 Initialization pass.
                           ----------------------------
                           !    Initial Parameters    !
                           ! (Angstroms and Degrees)  !
 --------------------------                            --------------------------
 ! Name  Definition              Value          Derivative Info.                !
 --------------------------------------------------------------------------------
 ! R1    R(1,2)                  1.0931         calculate D2E/DX2 analytically  !
 ! R2    R(1,3)                  1.0883         calculate D2E/DX2 analytically  !
 ! R3    R(1,4)                  1.0897         calculate D2E/DX2 analytically  !
 ! R4    R(1,5)                  1.4125         calculate D2E/DX2 analytically  !
 ! R5    R(5,6)                  1.3831         calculate D2E/DX2 analytically  !
 ! R6    R(6,10)                 1.1349         calculate D2E/DX2 analytically  !
 ! R7    R(7,8)                  1.0831         calculate D2E/DX2 analytically  !
 ! R8    R(7,9)                  1.084          calculate D2E/DX2 analytically  !
 ! R9    R(7,10)                 1.3881         calculate D2E/DX2 analytically  !
 ! R10   R(7,11)                 1.0829         calculate D2E/DX2 analytically  !
 ! A1    A(2,1,3)              109.9124         calculate D2E/DX2 analytically  !
 ! A2    A(2,1,4)              109.7803         calculate D2E/DX2 analytically  !
 ! A3    A(2,1,5)              110.451          calculate D2E/DX2 analytically  !
 ! A4    A(3,1,4)              110.3827         calculate D2E/DX2 analytically  !
 ! A5    A(3,1,5)              105.7412         calculate D2E/DX2 analytically  !
 ! A6    A(4,1,5)              110.509          calculate D2E/DX2 analytically  !
 ! A7    A(1,5,6)              108.1036         calculate D2E/DX2 analytically  !
 ! A8    A(5,6,10)             103.9975         calculate D2E/DX2 analytically  !
 ! A9    A(8,7,9)              115.3132         calculate D2E/DX2 analytically  !
 ! A10   A(8,7,10)             102.4063         calculate D2E/DX2 analytically  !
 ! A11   A(8,7,11)             115.3277         calculate D2E/DX2 analytically  !
 ! A12   A(9,7,10)             100.3196         calculate D2E/DX2 analytically  !
 ! A13   A(9,7,11)             115.6556         calculate D2E/DX2 analytically  !
 ! A14   A(10,7,11)            104.8318         calculate D2E/DX2 analytically  !
 ! A15   L(6,10,7,2,-1)        176.3289         calculate D2E/DX2 analytically  !
 ! A16   L(6,10,7,2,-2)        184.2807         calculate D2E/DX2 analytically  !
 ! D1    D(2,1,5,6)             64.9727         calculate D2E/DX2 analytically  !
 ! D2    D(3,1,5,6)           -176.1611         calculate D2E/DX2 analytically  !
 ! D3    D(4,1,5,6)            -56.7032         calculate D2E/DX2 analytically  !
 ! D4    D(1,5,6,10)           -89.0704         calculate D2E/DX2 analytically  !
 ! D5    D(5,6,7,8)           -133.6409         calculate D2E/DX2 analytically  !
 ! D6    D(5,6,7,9)            -14.9811         calculate D2E/DX2 analytically  !
 ! D7    D(5,6,7,11)           104.5099         calculate D2E/DX2 analytically  !
 --------------------------------------------------------------------------------
 Trust Radius=3.00D-01 FncErr=1.00D-07 GrdErr=1.00D-07 EigMax=2.50D+02 EigMin=1.00D-04
 Number of steps in this run=    100 maximum allowed number of steps=    100.
 Search for a saddle point of order  1.
 GradGradGradGradGradGradGradGradGradGradGradGradGradGradGradGradGradGrad

                          Input orientation:                          
 ---------------------------------------------------------------------
 Center     Atomic      Atomic             Coordinates (Angstroms)
 Number     Number       Type             X           Y           Z
 ---------------------------------------------------------------------
      1          6           0        1.502239   -0.672079    0.177697
      2          1           0        0.787989   -1.448068    0.465143
      3          1           0        2.240797   -1.083578   -0.507586
      4          1           0        1.990164   -0.272514    1.066362
      5          8           0        0.850718    0.358874   -0.534964
      6          8           0       -0.042354    0.975872    0.322204
      7          6           0       -2.104714   -0.424261   -0.047622
      8          1           0       -2.898317    0.302869   -0.168554
      9          1           0       -1.786830   -0.919154   -0.958174
     10          1           0       -0.999396    0.378710    0.197861
     11          1           0       -2.186470   -1.058192    0.826574
 ---------------------------------------------------------------------
                    Distance matrix (angstroms):
                    1          2          3          4          5
     1  C    0.000000
     2  H    1.093132   0.000000
     3  H    1.088307   1.785975   0.000000
     4  H    1.089701   1.785670   1.788282   0.000000
     5  O    1.412526   2.066201   2.003431   2.064275   0.000000
     6  O    2.263270   2.566201   3.184755   2.498673   1.383113
     7  C    3.622470   3.111083   4.419246   4.246412   3.096027
     8  H    4.520543   4.129916   5.333636   5.074774   3.767314
     9  H    3.488441   2.989193   4.056087   4.333887   2.961270
    10  H    2.713437   2.569689   3.624195   3.180543   1.990062
    11  H    3.765196   3.021596   4.623994   4.256649   3.617509
                    6          7          8          9         10
     6  O    0.000000
     7  C    2.520014   0.000000
     8  H    2.974946   1.083120   0.000000
     9  H    2.876402   1.084008   1.830913   0.000000
    10  H    1.134898   1.388075   1.935436   1.908120   0.000000
    11  H    2.998173   1.082946   1.830162   1.834222   1.967006
                   11
    11  H    0.000000
 Stoichiometry    C2H7O2(2)
 Framework group  C1[X(C2H7O2)]
 Deg. of freedom    27
 Full point group                 C1      NOp   1
 Largest Abelian subgroup         C1      NOp   1
 Largest concise Abelian subgroup C1      NOp   1
                         Standard orientation:                         
 ---------------------------------------------------------------------
 Center     Atomic      Atomic             Coordinates (Angstroms)
 Number     Number       Type             X           Y           Z
 ---------------------------------------------------------------------
      1          6           0        1.502239    0.672079   -0.177697
      2          1           0        0.787989    1.448068   -0.465143
      3          1           0        2.240797    1.083578    0.507586
      4          1           0        1.990164    0.272514   -1.066362
      5          8           0        0.850718   -0.358874    0.534964
      6          8           0       -0.042354   -0.975872   -0.322204
      7          6           0       -2.104714    0.424261    0.047622
      8          1           0       -2.898317   -0.302869    0.168554
      9          1           0       -1.786830    0.919154    0.958174
     10          1           0       -0.999396   -0.378710   -0.197861
     11          1           0       -2.186470    1.058192   -0.826574
 ---------------------------------------------------------------------
 Rotational constants (GHZ):          12.6032303           3.9223584           3.3887815
 Standard basis: CC-pVTZ (5D, 7F)
 There are   245 symmetry adapted cartesian basis functions of A   symmetry.
 There are   218 symmetry adapted basis functions of A   symmetry.
   218 basis functions,   327 primitive gaussians,   245 cartesian basis functions
    18 alpha electrons       17 beta electrons
       nuclear repulsion energy       132.2045710848 Hartrees.
 NAtoms=   11 NActive=   11 NUniq=   11 SFac= 1.00D+00 NAtFMM=   60 NAOKFM=F Big=F
 Integral buffers will be    131072 words long.
 Raffenetti 2 integral format.
 Two-electron integral symmetry is turned on.
 Nuclear repulsion after empirical dispersion term =      132.2007953563 Hartrees.
 One-electron integrals computed using PRISM.
 NBasis=   218 RedAO= T EigKep=  1.76D-03  NBF=   218
 NBsUse=   218 1.00D-06 EigRej= -1.00D+00 NBFU=   218
 ExpMin= 1.03D-01 ExpMax= 1.53D+04 ExpMxC= 5.22D+02 IAcc=3 IRadAn=         5 AccDes= 0.00D+00
 Harris functional with IExCor=  419 and IRadAn=       5 diagonalized for initial guess.
 HarFok:  IExCor=  419 AccDes= 0.00D+00 IRadAn=         5 IDoV= 1 UseB2=F ITyADJ=14
 ICtDFT=  3500011 ScaDFX=  1.000000  1.000000  1.000000  1.000000
 FoFCou: FMM=F IPFlag=           0 FMFlag=      100000 FMFlg1=           0
         NFxFlg=           0 DoJE=T BraDBF=F KetDBF=T FulRan=T
         wScrn=  0.000000 ICntrl=       500 IOpCl=  0 I1Cent=   200000004 NGrid=           0
         NMat0=    1 NMatS0=      1 NMatT0=    0 NMatD0=    1 NMtDS0=    0 NMtDT0=    0
 Petite list used in FoFCou.
 Initial guess <Sx>= 0.0000 <Sy>= 0.0000 <Sz>= 0.5000 <S**2>= 0.7500 S= 0.5000
 Keep R1 and R2 ints in memory in canonical form, NReq=612885869.
 Requested convergence on RMS density matrix=1.00D-08 within 128 cycles.
 Requested convergence on MAX density matrix=1.00D-06.
 Requested convergence on             energy=1.00D-06.
 No special actions if energy rises.
 Integral accuracy reduced to 1.0D-05 until final iterations.
 Initial convergence to 1.0D-05 achieved.  Increase integral accuracy.
 SCF Done:  E(UB2PLYPD3) =  -230.321324081     A.U. after   19 cycles
            NFock= 19  Conv=0.34D-08     -V/T= 2.0040
 <Sx>= 0.0000 <Sy>= 0.0000 <Sz>= 0.5000 <S**2>= 0.7679 S= 0.5089
 <L.S>=  0.00000000000    
 Annihilation of the first spin contaminant:
 S**2 before annihilation     0.7679,   after     0.7501
 DoSCS=T DFT=T ScalE2(SS,OS)=  0.270000  0.270000
 ExpMin= 1.03D-01 ExpMax= 1.53D+04 ExpMxC= 5.22D+02 IAcc=3 IRadAn=         5 AccDes= 0.00D+00
 HarFok:  IExCor=  205 AccDes= 0.00D+00 IRadAn=         5 IDoV=-2 UseB2=F ITyADJ=14
 ICtDFT= 12500011 ScaDFX=  1.000000  1.000000  1.000000  1.000000
 Range of M.O.s used for correlation:     5   218
 NBasis=   218 NAE=    18 NBE=    17 NFC=     4 NFV=     0
 NROrb=    214 NOA=    14 NOB=    13 NVA=   200 NVB=   201

 **** Warning!!: The largest alpha MO coefficient is  0.10639476D+02


 **** Warning!!: The largest beta MO coefficient is  0.10402751D+02

 DoSCS=T DFT=T ScalE2(SS,OS)=  0.270000  0.270000
 Disk-based method using ON**2 memory for 14 occupieds at a time.
 Permanent disk used for amplitudes=    18079500 words.
 Estimated scratch disk usage=   370319678 words.
 Actual    scratch disk usage=   357851454 words.
 JobTyp=2 Pass  1:  I=   5 to  18 NPSUse= 40 ParTrn=T ParDer=T DoDerP=T.
 (rs|ai) integrals will be sorted in core.
 Actual    scratch disk usage=   357851454 words.
 JobTyp=3 Pass  1:  I=   5 to  17 NPSUse= 40 ParTrn=T ParDer=T DoDerP=T.
 (rs|ai) integrals will be sorted in core.
 Spin components of T(2) and E(2):
     alpha-alpha T2 =       0.4387848710D-01 E2=     -0.3421250597D-01
     alpha-beta  T2 =       0.2695962305D+00 E2=     -0.2107742946D+00
     beta-beta   T2 =       0.4633905565D-01 E2=     -0.3209525291D-01
 (S**2,0)=  0.76794D+00           (S**2,1)=  0.74276D+00
 Scaling Projection term by:   0.270000
 E(PUHF)=      -0.23032740471D+03        E(PMP2)=      -0.23059890075D+03
 E2(B2PLYPD3) =    -0.2770820535D+00 E(B2PLYPD3) =    -0.23059840613444D+03
 G2DrvN: will do    12 centers at a time, making    1 passes.
 Calling FoFCou, ICntrl=  3107 FMM=F I1Cent=   0 AccDes= 0.00D+00.
 End of G2Drv F.D. properties file   721 does not exist.
 End of G2Drv F.D. properties file   722 does not exist.
 End of G2Drv F.D. properties file   788 does not exist.
          IDoAtm=11111111111
          Differentiating once with respect to electric field.
                with respect to dipole field.
          Differentiating once with respect to nuclear coordinates.
 Keep R1 and R2 ints in memory in canonical form, NReq=612756859.
          There are    36 degrees of freedom in the 1st order CPHF.  IDoFFX=6 NUNeed=    36.
     33 vectors produced by pass  0 Test12= 1.95D-14 2.78D-09 XBig12= 5.37D+01 4.81D+00.
 AX will form    33 AO Fock derivatives at one time.
     33 vectors produced by pass  1 Test12= 1.95D-14 2.78D-09 XBig12= 2.87D+00 2.55D-01.
     33 vectors produced by pass  2 Test12= 1.95D-14 2.78D-09 XBig12= 1.34D-01 6.57D-02.
     33 vectors produced by pass  3 Test12= 1.95D-14 2.78D-09 XBig12= 2.09D-03 5.88D-03.
     33 vectors produced by pass  4 Test12= 1.95D-14 2.78D-09 XBig12= 3.33D-05 7.52D-04.
     33 vectors produced by pass  5 Test12= 1.95D-14 2.78D-09 XBig12= 2.99D-07 7.53D-05.
     33 vectors produced by pass  6 Test12= 1.95D-14 2.78D-09 XBig12= 2.97D-09 6.35D-06.
     12 vectors produced by pass  7 Test12= 1.95D-14 2.78D-09 XBig12= 1.98D-11 4.34D-07.
      3 vectors produced by pass  8 Test12= 1.95D-14 2.78D-09 XBig12= 1.20D-13 3.06D-08.
      1 vectors produced by pass  9 Test12= 1.95D-14 2.78D-09 XBig12= 8.98D-16 3.05D-09.
 InvSVY:  IOpt=1 It=  1 EMax= 7.11D-15
 Solved reduced A of dimension   247 with    36 vectors.
 End of Minotr F.D. properties file   721 does not exist.
 End of Minotr F.D. properties file   722 does not exist.
 End of Minotr F.D. properties file   788 does not exist.
 MDV= 10737418240.
 DoSCS=T DFT=T ScalE2(SS,OS)=  0.270000  0.270000
 Form MO integral derivatives with frozen-active canonical formalism.
 Discarding MO integrals.
 Reordered first order wavefunction length =     73075836
 In DefCFB: NBatch=  1 ICI= 18 ICA=201 LFMax= 67
            Large arrays: LIAPS=  1499111880 LIARS=   434340900 words.
 In DefCFB: NBatch=  1 ICI= 18 ICA=201 LFMax= 67
            Large arrays: LIAPS=  1499111880 LIARS=   434340900 words.
 Semi-Direct transformation.
 ModeAB=           4 MOrb=            18 LenV=   10735890295
 LASXX=     88207281 LTotXX=    88207281 LenRXX=   178224822
 LTotAB=    90017541 MaxLAS=   115640280 LenRXY=           0
 NonZer=   266432103 LenScr=   401215488 LnRSAI=   115640280
 LnScr1=   174232576 LExtra=           0 Total=    869313166
 MaxDsk=          -1 SrtSym=           T ITran=            4
 JobTyp=1 Pass  1:  I=   1 to  18.
 (rs|ai) integrals will be sorted in core.
 ModeAB=           4 MOrb=            17 LenV=   10735890295
 LASXX=     83565217 LTotXX=    83565217 LenRXX=   155322217
 LTotAB=    71757000 MaxLAS=   109215820 LenRXY=           0
 NonZer=   238887434 LenScr=   359737344 LnRSAI=   109215820
 LnScr1=   164571136 LExtra=           0 Total=    788846517
 MaxDsk=          -1 SrtSym=           T ITran=            4
 JobTyp=2 Pass  1:  I=   1 to  17.
 (rs|ai) integrals will be sorted in core.
 SymMOI:  orbitals are not symmetric.
 DoSCS=T DFT=T ScalE2(SS,OS)=  0.270000  0.270000
 Spin components of T(2) and E(2):
     alpha-alpha T2 =       0.4387848710D-01 E2=     -0.3421250597D-01
     alpha-beta  T2 =       0.2695962305D+00 E2=     -0.2107742946D+00
     beta-beta   T2 =       0.4633905565D-01 E2=     -0.3209525291D-01
 E2(B2PLYPD3) =    -0.2770820535D+00 E(B2PLYPD3) =    -0.23059840613444D+03
 (S**2,0)=  0.76794D+00           (S**2,1)=  0.74276D+00
 Scaling Projection term by:   0.270000
 E(PUHF)=      -0.23032740471D+03        E(PMP2)=      -0.23059890075D+03
          IDoAtm=11111111111
          Differentiating once with respect to electric field.
                with respect to dipole field.
          Differentiating once with respect to nuclear coordinates.
 Keep R1 and R2 ints in memory in canonical form, NReq=612894013.
          There are     1 degrees of freedom in the 1st order CPHF.  IDoFFX=0 NUNeed=     1.
 LinEq1:  Iter=  0 NonCon=     1 RMS=1.22D-03 Max=7.24D-02 NDo=     1
 AX will form     1 AO Fock derivatives at one time.
 LinEq1:  Iter=  1 NonCon=     1 RMS=3.81D-04 Max=8.64D-03 NDo=     1
 LinEq1:  Iter=  2 NonCon=     1 RMS=2.09D-04 Max=8.01D-03 NDo=     1
 LinEq1:  Iter=  3 NonCon=     1 RMS=8.22D-05 Max=8.77D-04 NDo=     1
 LinEq1:  Iter=  4 NonCon=     1 RMS=4.14D-05 Max=6.38D-04 NDo=     1
 LinEq1:  Iter=  5 NonCon=     1 RMS=2.83D-05 Max=7.84D-04 NDo=     1
 LinEq1:  Iter=  6 NonCon=     1 RMS=1.59D-05 Max=4.20D-04 NDo=     1
 LinEq1:  Iter=  7 NonCon=     1 RMS=4.12D-06 Max=5.47D-05 NDo=     1
 LinEq1:  Iter=  8 NonCon=     1 RMS=1.25D-06 Max=1.88D-05 NDo=     1
 LinEq1:  Iter=  9 NonCon=     1 RMS=4.06D-07 Max=6.96D-06 NDo=     1
 LinEq1:  Iter= 10 NonCon=     1 RMS=1.35D-07 Max=1.84D-06 NDo=     1
 LinEq1:  Iter= 11 NonCon=     1 RMS=4.48D-08 Max=7.66D-07 NDo=     1
 LinEq1:  Iter= 12 NonCon=     1 RMS=1.81D-08 Max=3.18D-07 NDo=     1
 LinEq1:  Iter= 13 NonCon=     1 RMS=7.69D-09 Max=1.76D-07 NDo=     1
 LinEq1:  Iter= 14 NonCon=     1 RMS=2.48D-09 Max=8.55D-08 NDo=     1
 LinEq1:  Iter= 15 NonCon=     1 RMS=7.72D-10 Max=3.13D-08 NDo=     1
 LinEq1:  Iter= 16 NonCon=     1 RMS=2.31D-10 Max=7.25D-09 NDo=     1
 LinEq1:  Iter= 17 NonCon=     1 RMS=7.07D-11 Max=1.43D-09 NDo=     1
 LinEq1:  Iter= 18 NonCon=     0 RMS=1.81D-11 Max=2.57D-10 NDo=     1
 Linear equations converged to 1.000D-10 1.000D-09 after    18 iterations.
 End of Minotr F.D. properties file   721 does not exist.
 End of Minotr F.D. properties file   722 does not exist.
 End of Minotr F.D. properties file   788 does not exist.
 Symmetrizing basis deriv contribution to polar:
 IMax=3 JMax=2 DiffMx= 0.00D+00
 G2DrvN: will do    12 centers at a time, making    1 passes.
 Calling FoFCou, ICntrl=  3107 FMM=F I1Cent=   0 AccDes= 0.00D+00.
 End of G2Drv F.D. properties file   721 does not exist.
 End of G2Drv F.D. properties file   722 does not exist.
 End of G2Drv F.D. properties file   788 does not exist.
 DoSCS=T DFT=T ScalE2(SS,OS)=  0.270000  0.270000
 R2 and R3 integrals will be kept in memory, NReq=   915591705.
 DD1Dir will call FoFMem   1 times, MxPair=       902
 NAB=   306 NAA=   153 NBB=   136.
 Discarding MO integrals.

 **********************************************************************

            Population analysis using the SCF Density.

 **********************************************************************

 Orbital symmetries:
 Alpha Orbitals:
       Occupied  (A) (A) (A) (A) (A) (A) (A) (A) (A) (A) (A) (A)
                 (A) (A) (A) (A) (A) (A)
       Virtual   (A) (A) (A) (A) (A) (A) (A) (A) (A) (A) (A) (A)
                 (A) (A) (A) (A) (A) (A) (A) (A) (A) (A) (A) (A)
                 (A) (A) (A) (A) (A) (A) (A) (A) (A) (A) (A) (A)
                 (A) (A) (A) (A) (A) (A) (A) (A) (A) (A) (A) (A)
                 (A) (A) (A) (A) (A) (A) (A) (A) (A) (A) (A) (A)
                 (A) (A) (A) (A) (A) (A) (A) (A) (A) (A) (A) (A)
                 (A) (A) (A) (A) (A) (A) (A) (A) (A) (A) (A) (A)
                 (A) (A) (A) (A) (A) (A) (A) (A) (A) (A) (A) (A)
                 (A) (A) (A) (A) (A) (A) (A) (A) (A) (A) (A) (A)
                 (A) (A) (A) (A) (A) (A) (A) (A) (A) (A) (A) (A)
                 (A) (A) (A) (A) (A) (A) (A) (A) (A) (A) (A) (A)
                 (A) (A) (A) (A) (A) (A) (A) (A) (A) (A) (A) (A)
                 (A) (A) (A) (A) (A) (A) (A) (A) (A) (A) (A) (A)
                 (A) (A) (A) (A) (A) (A) (A) (A) (A) (A) (A) (A)
                 (A) (A) (A) (A) (A) (A) (A) (A) (A) (A) (A) (A)
                 (A) (A) (A) (A) (A) (A) (A) (A) (A) (A) (A) (A)
                 (A) (A) (A) (A) (A) (A) (A) (A)
 Beta  Orbitals:
       Occupied  (A) (A) (A) (A) (A) (A) (A) (A) (A) (A) (A) (A)
                 (A) (A) (A) (A) (A)
       Virtual   (A) (A) (A) (A) (A) (A) (A) (A) (A) (A) (A) (A)
                 (A) (A) (A) (A) (A) (A) (A) (A) (A) (A) (A) (A)
                 (A) (A) (A) (A) (A) (A) (A) (A) (A) (A) (A) (A)
                 (A) (A) (A) (A) (A) (A) (A) (A) (A) (A) (A) (A)
                 (A) (A) (A) (A) (A) (A) (A) (A) (A) (A) (A) (A)
                 (A) (A) (A) (A) (A) (A) (A) (A) (A) (A) (A) (A)
                 (A) (A) (A) (A) (A) (A) (A) (A) (A) (A) (A) (A)
                 (A) (A) (A) (A) (A) (A) (A) (A) (A) (A) (A) (A)
                 (A) (A) (A) (A) (A) (A) (A) (A) (A) (A) (A) (A)
                 (A) (A) (A) (A) (A) (A) (A) (A) (A) (A) (A) (A)
                 (A) (A) (A) (A) (A) (A) (A) (A) (A) (A) (A) (A)
                 (A) (A) (A) (A) (A) (A) (A) (A) (A) (A) (A) (A)
                 (A) (A) (A) (A) (A) (A) (A) (A) (A) (A) (A) (A)
                 (A) (A) (A) (A) (A) (A) (A) (A) (A) (A) (A) (A)
                 (A) (A) (A) (A) (A) (A) (A) (A) (A) (A) (A) (A)
                 (A) (A) (A) (A) (A) (A) (A) (A) (A) (A) (A) (A)
                 (A) (A) (A) (A) (A) (A) (A) (A) (A)
 The electronic state is 2-A.
 Alpha  occ. eigenvalues --  -19.78770 -19.78720 -10.66168 -10.63925  -1.29163
 Alpha  occ. eigenvalues --   -1.02344  -0.82953  -0.77646  -0.61766  -0.56466
 Alpha  occ. eigenvalues --   -0.55286  -0.50300  -0.49810  -0.49678  -0.44497
 Alpha  occ. eigenvalues --   -0.38041  -0.36634  -0.31175
 Alpha virt. eigenvalues --    0.07368   0.10709   0.13696   0.14265   0.15195
 Alpha virt. eigenvalues --    0.15592   0.16698   0.20875   0.27045   0.28253
 Alpha virt. eigenvalues --    0.28673   0.31382   0.32937   0.37085   0.44589
 Alpha virt. eigenvalues --    0.47441   0.48962   0.50335   0.51129   0.52041
 Alpha virt. eigenvalues --    0.53275   0.53784   0.54497   0.55128   0.57443
 Alpha virt. eigenvalues --    0.60020   0.65569   0.68003   0.71088   0.75800
 Alpha virt. eigenvalues --    0.78652   0.84402   0.88942   0.91246   0.91848
 Alpha virt. eigenvalues --    0.93892   0.94488   0.96198   1.02038   1.03634
 Alpha virt. eigenvalues --    1.04344   1.05823   1.06859   1.11392   1.12622
 Alpha virt. eigenvalues --    1.14066   1.15821   1.18630   1.21277   1.26738
 Alpha virt. eigenvalues --    1.32744   1.37010   1.37353   1.38904   1.38998
 Alpha virt. eigenvalues --    1.40735   1.43065   1.44322   1.49355   1.52018
 Alpha virt. eigenvalues --    1.62018   1.66453   1.69999   1.78800   1.83938
 Alpha virt. eigenvalues --    1.89016   1.99961   2.03967   2.09823   2.13710
 Alpha virt. eigenvalues --    2.20758   2.27241   2.31321   2.33499   2.35065
 Alpha virt. eigenvalues --    2.38467   2.43843   2.49347   2.54314   2.55136
 Alpha virt. eigenvalues --    2.68270   2.71428   2.74848   2.83322   2.86010
 Alpha virt. eigenvalues --    2.88511   2.91348   2.91937   2.92778   2.93856
 Alpha virt. eigenvalues --    2.94299   2.98634   3.01014   3.04302   3.11150
 Alpha virt. eigenvalues --    3.12353   3.14096   3.14770   3.17462   3.18251
 Alpha virt. eigenvalues --    3.21975   3.23085   3.35140   3.39910   3.40411
 Alpha virt. eigenvalues --    3.40584   3.43283   3.44759   3.49153   3.50013
 Alpha virt. eigenvalues --    3.51331   3.53656   3.53991   3.55688   3.57223
 Alpha virt. eigenvalues --    3.59989   3.61483   3.65128   3.79769   3.81646
 Alpha virt. eigenvalues --    3.82484   3.85746   3.86910   3.89647   3.92076
 Alpha virt. eigenvalues --    3.96144   3.96245   4.00963   4.03141   4.06288
 Alpha virt. eigenvalues --    4.06964   4.08974   4.11670   4.17246   4.17791
 Alpha virt. eigenvalues --    4.20106   4.21391   4.21853   4.26649   4.35311
 Alpha virt. eigenvalues --    4.38469   4.42647   4.44786   4.51106   4.55469
 Alpha virt. eigenvalues --    4.62861   4.69578   4.79769   4.81292   4.89096
 Alpha virt. eigenvalues --    4.93632   4.96061   4.98421   4.98931   4.99696
 Alpha virt. eigenvalues --    5.03063   5.06555   5.10925   5.12958   5.22522
 Alpha virt. eigenvalues --    5.24362   5.26584   5.29584   5.30616   5.34739
 Alpha virt. eigenvalues --    5.36959   5.39427   5.40098   5.48262   5.58640
 Alpha virt. eigenvalues --    5.69916   5.70907   5.75365   5.82932   5.86374
 Alpha virt. eigenvalues --    5.89262   5.93304   5.96993   6.07839   6.09942
 Alpha virt. eigenvalues --    6.27467   6.35321   6.41701   6.45450   6.67969
 Alpha virt. eigenvalues --    6.75235   6.77196   6.84219   6.96002   7.05622
 Alpha virt. eigenvalues --    7.07080   7.17532   7.41822   7.44372   7.61191
 Alpha virt. eigenvalues --    7.74482   9.93678  10.87113  13.30900  13.43187
  Beta  occ. eigenvalues --  -19.78611 -19.77193 -10.66177 -10.62608  -1.27327
  Beta  occ. eigenvalues --   -0.99629  -0.79203  -0.76667  -0.58392  -0.55167
  Beta  occ. eigenvalues --   -0.54968  -0.49185  -0.48919  -0.46664  -0.43706
  Beta  occ. eigenvalues --   -0.35591  -0.33789
  Beta virt. eigenvalues --   -0.05204   0.07682   0.10966   0.14232   0.14516
  Beta virt. eigenvalues --    0.15410   0.15787   0.16817   0.21779   0.28438
  Beta virt. eigenvalues --    0.28489   0.29800   0.31705   0.33127   0.38002
  Beta virt. eigenvalues --    0.44959   0.48567   0.49492   0.51518   0.52154
  Beta virt. eigenvalues --    0.53147   0.53875   0.54666   0.55778   0.56016
  Beta virt. eigenvalues --    0.58418   0.60511   0.65762   0.68210   0.72096
  Beta virt. eigenvalues --    0.76344   0.79327   0.84858   0.89194   0.91492
  Beta virt. eigenvalues --    0.91765   0.94118   0.94899   0.96373   1.02264
  Beta virt. eigenvalues --    1.04002   1.04633   1.06377   1.08487   1.12374
  Beta virt. eigenvalues --    1.13240   1.14881   1.16037   1.18830   1.21738
  Beta virt. eigenvalues --    1.27133   1.33063   1.37371   1.37990   1.38977
  Beta virt. eigenvalues --    1.39305   1.40895   1.43778   1.44874   1.50047
  Beta virt. eigenvalues --    1.52246   1.62086   1.67658   1.70754   1.79296
  Beta virt. eigenvalues --    1.87015   1.90245   2.00507   2.04864   2.10306
  Beta virt. eigenvalues --    2.15467   2.20898   2.28352   2.32176   2.34099
  Beta virt. eigenvalues --    2.35491   2.38707   2.44743   2.49538   2.55222
  Beta virt. eigenvalues --    2.56614   2.68768   2.72590   2.76068   2.83835
  Beta virt. eigenvalues --    2.87149   2.89494   2.91601   2.92820   2.93665
  Beta virt. eigenvalues --    2.94556   2.95150   2.99489   3.01365   3.04458
  Beta virt. eigenvalues --    3.12010   3.12462   3.14943   3.15858   3.19102
  Beta virt. eigenvalues --    3.20036   3.22755   3.24462   3.35304   3.39662
  Beta virt. eigenvalues --    3.40473   3.40971   3.43992   3.45878   3.49670
  Beta virt. eigenvalues --    3.50797   3.51501   3.53761   3.54250   3.55736
  Beta virt. eigenvalues --    3.57277   3.60660   3.61538   3.65539   3.80116
  Beta virt. eigenvalues --    3.81594   3.82343   3.85669   3.87083   3.89883
  Beta virt. eigenvalues --    3.92234   3.96246   3.96481   4.01030   4.03146
  Beta virt. eigenvalues --    4.06182   4.06757   4.09156   4.11659   4.17429
  Beta virt. eigenvalues --    4.17971   4.20241   4.21609   4.22096   4.26797
  Beta virt. eigenvalues --    4.35365   4.39073   4.43001   4.46238   4.51939
  Beta virt. eigenvalues --    4.56224   4.63926   4.69928   4.80029   4.81480
  Beta virt. eigenvalues --    4.89898   4.93866   4.96438   4.98934   4.99536
  Beta virt. eigenvalues --    5.00240   5.03457   5.06745   5.12189   5.14193
  Beta virt. eigenvalues --    5.22768   5.25234   5.26953   5.30001   5.30833
  Beta virt. eigenvalues --    5.35158   5.37230   5.39876   5.40636   5.48531
  Beta virt. eigenvalues --    5.59329   5.70573   5.72775   5.75874   5.83668
  Beta virt. eigenvalues --    5.86920   5.89727   5.93362   5.97229   6.09377
  Beta virt. eigenvalues --    6.10505   6.27729   6.37491   6.42356   6.46985
  Beta virt. eigenvalues --    6.68793   6.77772   6.79177   6.85360   6.97711
  Beta virt. eigenvalues --    7.06114   7.08612   7.19639   7.43689   7.44810
  Beta virt. eigenvalues --    7.62636   7.75462   9.94470  10.88126  13.31779
  Beta virt. eigenvalues --   13.43452
          Condensed to atoms (all electrons):
               1          2          3          4          5          6
     1  C    4.583370   0.392082   0.395757   0.410568   0.314086  -0.047187
     2  H    0.392082   0.694340  -0.034696  -0.062838  -0.050461  -0.003508
     3  H    0.395757  -0.034696   0.594104  -0.029509  -0.026162   0.007147
     4  H    0.410568  -0.062838  -0.029509   0.636097  -0.043896   0.004793
     5  O    0.314086  -0.050461  -0.026162  -0.043896   7.944715   0.065379
     6  O   -0.047187  -0.003508   0.007147   0.004793   0.065379   8.048644
     7  C   -0.003559   0.000858   0.000299  -0.000445   0.000420  -0.077916
     8  H    0.000123  -0.000127  -0.000002   0.000004   0.000349   0.000782
     9  H   -0.000109  -0.002533   0.000007   0.000427   0.006306  -0.002418
    10  H    0.002576   0.005831  -0.000829   0.000185  -0.031818   0.218888
    11  H   -0.000054  -0.000931  -0.000032   0.000085   0.000389   0.000272
               7          8          9         10         11
     1  C   -0.003559   0.000123  -0.000109   0.002576  -0.000054
     2  H    0.000858  -0.000127  -0.002533   0.005831  -0.000931
     3  H    0.000299  -0.000002   0.000007  -0.000829  -0.000032
     4  H   -0.000445   0.000004   0.000427   0.000185   0.000085
     5  O    0.000420   0.000349   0.006306  -0.031818   0.000389
     6  O   -0.077916   0.000782  -0.002418   0.218888   0.000272
     7  C    5.091484   0.396756   0.389880   0.193741   0.391851
     8  H    0.396756   0.528515  -0.022251  -0.006889  -0.025267
     9  H    0.389880  -0.022251   0.540555  -0.006973  -0.028602
    10  H    0.193741  -0.006889  -0.006973   0.415834  -0.004691
    11  H    0.391851  -0.025267  -0.028602  -0.004691   0.550062
          Atomic-Atomic Spin Densities.
               1          2          3          4          5          6
     1  C   -0.005949   0.003638   0.000695  -0.002728   0.000820  -0.002606
     2  H    0.003638   0.003724  -0.000756  -0.001802  -0.001058   0.004338
     3  H    0.000695  -0.000756  -0.001717   0.001045  -0.000012  -0.000219
     4  H   -0.002728  -0.001802   0.001045   0.005250  -0.000973  -0.000433
     5  O    0.000820  -0.001058  -0.000012  -0.000973   0.056181  -0.042919
     6  O   -0.002606   0.004338  -0.000219  -0.000433  -0.042919   0.543943
     7  C    0.001508  -0.005660   0.000135   0.001401   0.013276  -0.087628
     8  H   -0.000054   0.000157  -0.000002  -0.000024  -0.000318   0.002142
     9  H   -0.000338   0.000772  -0.000019  -0.000102  -0.001298   0.001875
    10  H    0.001687  -0.003474   0.000052   0.001388   0.008955  -0.031340
    11  H   -0.000105   0.000733  -0.000005  -0.000113  -0.000485   0.002503
               7          8          9         10         11
     1  C    0.001508  -0.000054  -0.000338   0.001687  -0.000105
     2  H   -0.005660   0.000157   0.000772  -0.003474   0.000733
     3  H    0.000135  -0.000002  -0.000019   0.000052  -0.000005
     4  H    0.001401  -0.000024  -0.000102   0.001388  -0.000113
     5  O    0.013276  -0.000318  -0.001298   0.008955  -0.000485
     6  O   -0.087628   0.002142   0.001875  -0.031340   0.002503
     7  C    0.738557   0.001373   0.003706   0.043424   0.000686
     8  H    0.001373  -0.025065   0.001602   0.002206   0.002629
     9  H    0.003706   0.001602  -0.028403   0.004562   0.001908
    10  H    0.043424   0.002206   0.004562  -0.114582   0.001646
    11  H    0.000686   0.002629   0.001908   0.001646  -0.024723
 Mulliken charges and spin densities:
               1          2
     1  C   -0.047653  -0.003431
     2  H    0.061981   0.000612
     3  H    0.093916  -0.000803
     4  H    0.084528   0.002910
     5  O   -0.179306   0.032171
     6  O   -0.214877   0.389656
     7  C   -0.383369   0.710778
     8  H    0.128007  -0.015354
     9  H    0.125710  -0.015737
    10  H    0.214145  -0.085475
    11  H    0.116918  -0.015327
 Sum of Mulliken charges =  -0.00000   1.00000
 Mulliken charges and spin densities with hydrogens summed into heavy atoms:
               1          2
     1  C    0.192773  -0.000711
     5  O   -0.179306   0.032171
     6  O   -0.000732   0.304181
     7  C   -0.012734   0.664359
 APT charges:
               1
     1  C    0.440337
     2  H   -0.043656
     3  H   -0.004288
     4  H   -0.031113
     5  O   -0.443527
     6  O    0.208295
     7  C    0.280676
     8  H   -0.013328
     9  H   -0.022708
    10  H   -0.345159
    11  H   -0.025528
 Sum of APT charges =  -0.00000
 APT charges with hydrogens summed into heavy atoms:
               1
     1  C    0.361280
     5  O   -0.443527
     6  O   -0.136864
     7  C    0.219111
 Electronic spatial extent (au):  <R**2>=            404.0835
 Charge=             -0.0000 electrons
 Dipole moment (field-independent basis, Debye):
    X=             -0.6524    Y=              2.2512    Z=             -0.4581  Tot=              2.3881
 Quadrupole moment (field-independent basis, Debye-Ang):
   XX=            -21.4133   YY=            -27.1481   ZZ=            -26.7001
   XY=              1.6007   XZ=             -0.5920   YZ=             -0.0361
 Traceless Quadrupole moment (field-independent basis, Debye-Ang):
   XX=              3.6739   YY=             -2.0610   ZZ=             -1.6129
   XY=              1.6007   XZ=             -0.5920   YZ=             -0.0361
 Octapole moment (field-independent basis, Debye-Ang**2):
  XXX=              3.8163  YYY=             -2.5378  ZZZ=              0.6396  XYY=              1.4247
  XXY=             -1.0581  XXZ=             -0.6653  XZZ=              0.9230  YZZ=             -0.1066
  YYZ=              0.3716  XYZ=              1.3226
 Hexadecapole moment (field-independent basis, Debye-Ang**3):
 XXXX=           -359.5800 YYYY=           -107.0093 ZZZZ=            -52.7057 XXXY=             12.1399
 XXXZ=              3.4082 YYYX=              0.3375 YYYZ=             -0.5300 ZZZX=              1.2765
 ZZZY=              0.8264 XXYY=            -78.2484 XXZZ=            -68.9404 YYZZ=            -25.1969
 XXYZ=              0.6987 YYXZ=              1.7921 ZZXY=             -0.7549
 N-N= 1.322007953563D+02 E-N=-8.054549097215D+02  KE= 2.294018130823D+02
  Exact polarizability:  72.117  -5.179  38.396  -0.242   1.246  33.357
 Approx polarizability:  55.811  -3.560  42.326   2.245   2.021  38.236
                          Isotropic Fermi Contact Couplings
        Atom                 a.u.       MegaHertz       Gauss      10(-4) cm-1
     1  C(13)             -0.00387      -4.34857      -1.55168      -1.45053
     2  H(1)               0.00274      12.24880       4.37068       4.08576
     3  H(1)              -0.00010      -0.46188      -0.16481      -0.15407
     4  H(1)               0.00079       3.50926       1.25219       1.17056
     5  O(17)              0.01582      -9.59200      -3.42267      -3.19955
     6  O(17)              0.02993     -18.14517      -6.47465      -6.05258
     7  C(13)              0.10050     112.97964      40.31395      37.68595
     8  H(1)              -0.00558     -24.92896      -8.89527      -8.31541
     9  H(1)              -0.00582     -25.99328      -9.27505      -8.67042
    10  H(1)              -0.02835    -126.72887     -45.22001     -42.27220
    11  H(1)              -0.00587     -26.23519      -9.36137      -8.75112
 --------------------------------------------------------
       Center         ----  Spin Dipole Couplings  ----
                      3XX-RR        3YY-RR        3ZZ-RR
 --------------------------------------------------------
     1   Atom        0.004203      0.001800     -0.006003
     2   Atom        0.001949      0.004257     -0.006207
     3   Atom        0.003295      0.000237     -0.003532
     4   Atom        0.004768     -0.002063     -0.002705
     5   Atom        0.222982     -0.001483     -0.221499
     6   Atom        0.530881      0.214193     -0.745074
     7   Atom        0.328374     -0.006063     -0.322311
     8   Atom        0.025501      0.020166     -0.045667
     9   Atom       -0.002552     -0.017054      0.019606
    10   Atom        0.137336     -0.017939     -0.119397
    11   Atom       -0.017938     -0.003830      0.021768
 --------------------------------------------------------
                        XY            XZ            YZ
 --------------------------------------------------------
     1   Atom        0.005938      0.000688     -0.002969
     2   Atom        0.005285     -0.001673     -0.002208
     3   Atom        0.004265      0.000901      0.000801
     4   Atom        0.004578     -0.003955     -0.002217
     5   Atom       -0.285899     -0.061793      0.005111
     6   Atom       -1.246316     -0.430085      0.381352
     7   Atom       -0.517366     -0.206161      0.150666
     8   Atom        0.025421     -0.014590      0.000046
     9   Atom       -0.008353      0.021700      0.038857
    10   Atom       -0.166716     -0.035480      0.025550
    11   Atom       -0.023046     -0.007752     -0.037840
 --------------------------------------------------------


 ---------------------------------------------------------------------------------
              Anisotropic Spin Dipole Couplings in Principal Axis System
 ---------------------------------------------------------------------------------

       Atom             a.u.   MegaHertz   Gauss  10(-4) cm-1        Axes

              Baa    -0.0077    -1.035    -0.369    -0.345 -0.2662  0.4346  0.8604
     1 C(13)  Bbb    -0.0015    -0.197    -0.070    -0.066 -0.5960  0.6274 -0.5012
              Bcc     0.0092     1.233     0.440     0.411  0.7576  0.6462 -0.0920
 
              Baa    -0.0067    -3.581    -1.278    -1.195  0.0980  0.1508  0.9837
     2 H(1)   Bbb    -0.0023    -1.230    -0.439    -0.410  0.7816 -0.6235  0.0177
              Bcc     0.0090     4.811     1.717     1.605  0.6161  0.7671 -0.1789
 
              Baa    -0.0037    -1.972    -0.704    -0.658 -0.0136 -0.1854  0.9826
     3 H(1)   Bbb    -0.0027    -1.465    -0.523    -0.489 -0.5850  0.7984  0.1425
              Bcc     0.0064     3.437     1.226     1.146  0.8109  0.5729  0.1193
 
              Baa    -0.0046    -2.467    -0.880    -0.823 -0.0054  0.6600  0.7513
     4 H(1)   Bbb    -0.0042    -2.250    -0.803    -0.750 -0.5585  0.6212 -0.5497
              Bcc     0.0088     4.717     1.683     1.573  0.8295  0.4225 -0.3653
 
              Baa    -0.2451    17.735     6.328     5.916  0.3556  0.3997  0.8449
     5 O(17)  Bbb    -0.1773    12.831     4.578     4.280  0.4379  0.7273 -0.5284
              Bcc     0.4224   -30.566   -10.907   -10.196  0.8257 -0.5579 -0.0837
 
              Baa    -0.8842    63.983    22.831    21.342  0.6021  0.7639 -0.2323
     6 O(17)  Bbb    -0.8765    63.422    22.631    21.155  0.3205  0.0352  0.9466
              Bcc     1.7607  -127.405   -45.461   -42.498  0.7312 -0.6444 -0.2236
 
              Baa    -0.3829   -51.388   -18.336   -17.141  0.3563  0.7248 -0.5897
     7 C(13)  Bbb    -0.3819   -51.248   -18.286   -17.094  0.5036  0.3827  0.7746
              Bcc     0.7648   102.635    36.623    34.235  0.7871 -0.5729 -0.2287
 
              Baa    -0.0489   -26.115    -9.318    -8.711  0.2182 -0.0809  0.9725
     8 H(1)   Bbb    -0.0007    -0.373    -0.133    -0.124 -0.6215  0.7568  0.2024
              Bcc     0.0496    26.488     9.452     8.835  0.7524  0.6486 -0.1149
 
              Baa    -0.0495   -26.390    -9.417    -8.803  0.3837  0.7481 -0.5414
     9 H(1)   Bbb     0.0011     0.607     0.216     0.202  0.8793 -0.4752 -0.0334
              Bcc     0.0483    25.783     9.200     8.600  0.2823  0.4632  0.8401
 
              Baa    -0.1269   -67.684   -24.151   -22.577 -0.2935 -0.6199  0.7277
    10 H(1)   Bbb    -0.1219   -65.054   -23.213   -21.700  0.4619  0.5745  0.6757
              Bcc     0.2488   132.738    47.364    44.277  0.8370 -0.5344 -0.1177
 
              Baa    -0.0488   -26.032    -9.289    -8.683  0.6077  0.6702  0.4262
    11 H(1)   Bbb    -0.0010    -0.512    -0.183    -0.171  0.7857 -0.4288 -0.4460
              Bcc     0.0497    26.544     9.472     8.854  0.1161 -0.6058  0.7871
 

 ---------------------------------------------------------------------------------

 Calling FoFJK, ICntrl=  10100127 FMM=F ISym2X=0 I1Cent= 0 IOpClX= 1 NMat=1 NMatS=1 NMatT=0.
 ***** Axes restored to original set *****
 -------------------------------------------------------------------
 Center     Atomic                   Forces (Hartrees/Bohr)
 Number     Number              X              Y              Z
 -------------------------------------------------------------------
      1        6           0.001917561   -0.003532110    0.003149539
      2        1           0.001082824    0.000099505    0.000042213
      3        1          -0.000352748    0.000330132    0.000121972
      4        1          -0.000016601   -0.000722245   -0.000283966
      5        8           0.008025601   -0.002109223   -0.011450404
      6        8          -0.006390543    0.007531633    0.008461495
      7        6          -0.000018172    0.000791044    0.000601943
      8        1           0.000223928   -0.000869084    0.000042840
      9        1          -0.000468662    0.000378703    0.000803199
     10        1          -0.003651683   -0.002206832   -0.000632446
     11        1          -0.000351505    0.000308476   -0.000856385
 -------------------------------------------------------------------
 Cartesian Forces:  Max     0.011450404 RMS     0.003565834
 FormGI is forming the generalized inverse of G from B-inverse, IUseBI=4.

 GradGradGradGradGradGradGradGradGradGradGradGradGradGradGradGradGradGrad
 Berny optimization.
 Internal  Forces:  Max     0.014754535 RMS     0.003026735
 Search for a saddle point.
 Step number   1 out of a maximum of  100
 All quantities printed in internal units (Hartrees-Bohrs-Radians)
 Swapping is turned off.
 Second derivative matrix not updated -- analytic derivatives used.
 ITU=  0
     Eigenvalues ---   -0.07981   0.00042   0.00647   0.01619   0.02477
     Eigenvalues ---    0.03531   0.05190   0.05379   0.08089   0.08172
     Eigenvalues ---    0.08487   0.08555   0.10380   0.13319   0.16605
     Eigenvalues ---    0.17593   0.18399   0.19479   0.28348   0.32707
     Eigenvalues ---    0.33506   0.34577   0.35718   0.35873   0.35985
     Eigenvalues ---    0.36335   0.43766
 Eigenvectors required to have negative eigenvalues:
                          R9        R6        R5        A12       A10
   1                    0.70759  -0.63084   0.15253  -0.14885  -0.11350
                          A14       A9        A8        A13       A11
   1                   -0.09448   0.08532  -0.08295   0.08281   0.08269
 RFO step:  Lambda0=1.905880569D-05 Lambda=-9.72997413D-04.
 Linear search not attempted -- option 19 set.
 Iteration  1 RMS(Cart)=  0.06075146 RMS(Int)=  0.00071870
 Iteration  2 RMS(Cart)=  0.00109951 RMS(Int)=  0.00004812
 Iteration  3 RMS(Cart)=  0.00000082 RMS(Int)=  0.00004811
 Variable       Old X    -DE/DX   Delta X   Delta X   Delta X     New X
                                 (Linear)    (Quad)   (Total)
    R1        2.06572  -0.00077   0.00000  -0.00307  -0.00307   2.06265
    R2        2.05660  -0.00044   0.00000  -0.00063  -0.00063   2.05597
    R3        2.05924  -0.00050   0.00000  -0.00216  -0.00216   2.05708
    R4        2.66929   0.00553   0.00000   0.01377   0.01377   2.68306
    R5        2.61370   0.01475   0.00000   0.04577   0.04577   2.65947
    R6        2.14465   0.00445   0.00000   0.00136   0.00136   2.14600
    R7        2.04680  -0.00075   0.00000  -0.00235  -0.00235   2.04445
    R8        2.04848  -0.00098   0.00000  -0.00284  -0.00284   2.04564
    R9        2.62308   0.00003   0.00000   0.01084   0.01084   2.63392
   R10        2.04647  -0.00085   0.00000  -0.00256  -0.00256   2.04391
    A1        1.91833  -0.00034   0.00000  -0.00104  -0.00103   1.91730
    A2        1.91603  -0.00054   0.00000   0.00088   0.00085   1.91688
    A3        1.92773   0.00113   0.00000   0.00697   0.00695   1.93469
    A4        1.92654  -0.00027   0.00000  -0.00174  -0.00175   1.92480
    A5        1.84553  -0.00078   0.00000  -0.00914  -0.00914   1.83639
    A6        1.92875   0.00081   0.00000   0.00379   0.00378   1.93252
    A7        1.88676   0.00138   0.00000  -0.00655  -0.00655   1.88021
    A8        1.81510   0.00429   0.00000   0.00387   0.00387   1.81897
    A9        2.01260  -0.00035   0.00000   0.00054   0.00065   2.01325
   A10        1.78733   0.00075   0.00000   0.00067   0.00066   1.78799
   A11        2.01285  -0.00039   0.00000   0.00032   0.00023   2.01308
   A12        1.75091   0.00013   0.00000  -0.00040  -0.00037   1.75054
   A13        2.01857  -0.00039   0.00000  -0.00044  -0.00045   2.01812
   A14        1.82966   0.00072   0.00000  -0.00085  -0.00089   1.82877
   A15        3.07752   0.00182   0.00000   0.03568   0.03568   3.11320
   A16        3.21631  -0.00124   0.00000  -0.03976  -0.03979   3.17652
    D1        1.13399   0.00037   0.00000   0.00961   0.00963   1.14362
    D2       -3.07459   0.00010   0.00000   0.00673   0.00673  -3.06786
    D3       -0.98966  -0.00025   0.00000   0.00130   0.00128  -0.98838
    D4       -1.55457  -0.00100   0.00000  -0.04018  -0.04018  -1.59475
    D5       -2.33247  -0.00005   0.00000  -0.01549  -0.01531  -2.34778
    D6       -0.26147  -0.00011   0.00000  -0.01083  -0.01094  -0.27241
    D7        1.82404   0.00010   0.00000  -0.00476  -0.00483   1.81921
         Item               Value     Threshold  Converged?
 Maximum Force            0.014755     0.000450     NO 
 RMS     Force            0.003027     0.000300     NO 
 Maximum Displacement     0.168947     0.001800     NO 
 RMS     Displacement     0.060876     0.001200     NO 
 Predicted change in Energy=-4.805659D-04
 GradGradGradGradGradGradGradGradGradGradGradGradGradGradGradGradGradGrad

                          Input orientation:                          
 ---------------------------------------------------------------------
 Center     Atomic      Atomic             Coordinates (Angstroms)
 Number     Number       Type             X           Y           Z
 ---------------------------------------------------------------------
      1          6           0        1.549578   -0.672541    0.187424
      2          1           0        0.863479   -1.470795    0.476288
      3          1           0        2.303046   -1.061577   -0.494206
      4          1           0        2.022797   -0.253639    1.073734
      5          8           0        0.870690    0.337107   -0.544416
      6          8           0       -0.055356    0.945831    0.323039
      7          6           0       -2.154108   -0.413956   -0.052625
      8          1           0       -2.923804    0.340498   -0.146542
      9          1           0       -1.876233   -0.909776   -0.973911
     10          1           0       -1.010608    0.350133    0.173837
     11          1           0       -2.235656   -1.052805    0.816320
 ---------------------------------------------------------------------
                    Distance matrix (angstroms):
                    1          2          3          4          5
     1  C    0.000000
     2  H    1.091505   0.000000
     3  H    1.087972   1.783724   0.000000
     4  H    1.088558   1.783936   1.785984   0.000000
     5  O    1.419814   2.076150   2.002620   2.072376   0.000000
     6  O    2.283273   2.589947   3.203067   2.514158   1.407332
     7  C    3.720455   3.240754   4.525553   4.329078   3.155211
     8  H    4.598797   4.244080   5.422790   5.129419   3.815298
     9  H    3.625074   3.150212   4.209458   4.452617   3.047092
    10  H    2.756919   2.630486   3.663265   3.221165   2.013787
    11  H    3.855918   3.145627   4.724126   4.340432   3.665084
                    6          7          8          9         10
     6  O    0.000000
     7  C    2.528814   0.000000
     8  H    2.968994   1.081875   0.000000
     9  H    2.905331   1.082506   1.828969   0.000000
    10  H    1.135616   1.393810   1.939859   1.911544   0.000000
    11  H    2.998596   1.081593   1.828099   1.831548   1.970218
                   11
    11  H    0.000000
 Stoichiometry    C2H7O2(2)
 Framework group  C1[X(C2H7O2)]
 Deg. of freedom    27
 Full point group                 C1      NOp   1
 Largest Abelian subgroup         C1      NOp   1
 Largest concise Abelian subgroup C1      NOp   1
                         Standard orientation:                         
 ---------------------------------------------------------------------
 Center     Atomic      Atomic             Coordinates (Angstroms)
 Number     Number       Type             X           Y           Z
 ---------------------------------------------------------------------
      1          6           0        1.554415    0.651771   -0.180670
      2          1           0        0.875721    1.457273   -0.466893
      3          1           0        2.309235    1.030760    0.505111
      4          1           0        2.026539    0.233891   -1.068045
      5          8           0        0.865231   -0.356267    0.543730
      6          8           0       -0.063477   -0.952471   -0.329554
      7          6           0       -2.151916    0.422549    0.048127
      8          1           0       -2.928076   -0.326012    0.135799
      9          1           0       -1.872433    0.910926    0.972896
     10          1           0       -1.014169   -0.349717   -0.179563
     11          1           0       -2.225837    1.066868   -0.817455
 ---------------------------------------------------------------------
 Rotational constants (GHZ):          12.9085752           3.7394423           3.2815014
 Standard basis: CC-pVTZ (5D, 7F)
 There are   245 symmetry adapted cartesian basis functions of A   symmetry.
 There are   218 symmetry adapted basis functions of A   symmetry.
   218 basis functions,   327 primitive gaussians,   245 cartesian basis functions
    18 alpha electrons       17 beta electrons
       nuclear repulsion energy       130.9165240113 Hartrees.
 NAtoms=   11 NActive=   11 NUniq=   11 SFac= 1.00D+00 NAtFMM=   60 NAOKFM=F Big=F
 Integral buffers will be    131072 words long.
 Raffenetti 2 integral format.
 Two-electron integral symmetry is turned on.
 Nuclear repulsion after empirical dispersion term =      130.9128160346 Hartrees.
 One-electron integrals computed using PRISM.
 NBasis=   218 RedAO= T EigKep=  1.76D-03  NBF=   218
 NBsUse=   218 1.00D-06 EigRej= -1.00D+00 NBFU=   218
 Initial guess from the checkpoint file:  "/localscratch/341085/Gau-60926.chk"
 B after Tr=    -0.000000    0.000000    0.000000
         Rot=    0.999993   -0.001740    0.000603    0.003381 Ang=  -0.44 deg.
 Initial guess <Sx>= 0.0000 <Sy>= 0.0000 <Sz>= 0.5000 <S**2>= 0.7681 S= 0.5090
 ExpMin= 1.03D-01 ExpMax= 1.53D+04 ExpMxC= 5.22D+02 IAcc=3 IRadAn=         5 AccDes= 0.00D+00
 Harris functional with IExCor=  419 and IRadAn=       5 diagonalized for initial guess.
 HarFok:  IExCor=  419 AccDes= 0.00D+00 IRadAn=         5 IDoV= 1 UseB2=F ITyADJ=14
 ICtDFT=  3500011 ScaDFX=  1.000000  1.000000  1.000000  1.000000
 FoFCou: FMM=F IPFlag=           0 FMFlag=      100000 FMFlg1=           0
         NFxFlg=           0 DoJE=T BraDBF=F KetDBF=T FulRan=T
         wScrn=  0.000000 ICntrl=       500 IOpCl=  0 I1Cent=   200000004 NGrid=           0
         NMat0=    1 NMatS0=      1 NMatT0=    0 NMatD0=    1 NMtDS0=    0 NMtDT0=    0
 Petite list used in FoFCou.
 Keep R1 and R2 ints in memory in canonical form, NReq=612885869.
 Requested convergence on RMS density matrix=1.00D-08 within 128 cycles.
 Requested convergence on MAX density matrix=1.00D-06.
 Requested convergence on             energy=1.00D-06.
 No special actions if energy rises.
 Integral accuracy reduced to 1.0D-05 until final iterations.
 Initial convergence to 1.0D-05 achieved.  Increase integral accuracy.
 SCF Done:  E(UB2PLYPD3) =  -230.321191023     A.U. after   15 cycles
            NFock= 15  Conv=0.46D-08     -V/T= 2.0042
 <Sx>= 0.0000 <Sy>= 0.0000 <Sz>= 0.5000 <S**2>= 0.7681 S= 0.5090
 <L.S>=  0.00000000000    
 Annihilation of the first spin contaminant:
 S**2 before annihilation     0.7681,   after     0.7501
 DoSCS=T DFT=T ScalE2(SS,OS)=  0.270000  0.270000
 ExpMin= 1.03D-01 ExpMax= 1.53D+04 ExpMxC= 5.22D+02 IAcc=3 IRadAn=         5 AccDes= 0.00D+00
 HarFok:  IExCor=  205 AccDes= 0.00D+00 IRadAn=         5 IDoV=-2 UseB2=F ITyADJ=14
 ICtDFT= 12500011 ScaDFX=  1.000000  1.000000  1.000000  1.000000
 Range of M.O.s used for correlation:     5   218
 NBasis=   218 NAE=    18 NBE=    17 NFC=     4 NFV=     0
 NROrb=    214 NOA=    14 NOB=    13 NVA=   200 NVB=   201

 **** Warning!!: The largest alpha MO coefficient is  0.10686966D+02


 **** Warning!!: The largest beta MO coefficient is  0.10472514D+02

 DoSCS=T DFT=T ScalE2(SS,OS)=  0.270000  0.270000
 Fully direct method using O(ONN) memory.
 JobTyp=2 Pass  1:  I=   5 to  18 NPSUse= 40 ParTrn=T ParDer=T DoDerP=T.
 JobTyp=3 Pass  1:  I=   5 to  17 NPSUse= 40 ParTrn=T ParDer=T DoDerP=T.
 Spin components of T(2) and E(2):
     alpha-alpha T2 =       0.4434615127D-01 E2=     -0.3428821691D-01
     alpha-beta  T2 =       0.2726752853D+00 E2=     -0.2113925433D+00
     beta-beta   T2 =       0.4647466970D-01 E2=     -0.3203853368D-01
 (S**2,0)=  0.76806D+00           (S**2,1)=  0.74294D+00
 Scaling Projection term by:   0.270000
 E(PUHF)=      -0.23032724241D+03        E(PMP2)=      -0.23059941319D+03
 E2(B2PLYPD3) =    -0.2777192939D+00 E(B2PLYPD3) =    -0.23059891031713D+03
          IDoAtm=11111111111
          Differentiating once with respect to electric field.
                with respect to dipole field.
          Differentiating once with respect to nuclear coordinates.
 Keep R1 and R2 ints in memory in canonical form, NReq=612894013.
          There are     1 degrees of freedom in the 1st order CPHF.  IDoFFX=0 NUNeed=     1.
 LinEq1:  Iter=  0 NonCon=     1 RMS=1.22D-03 Max=7.29D-02 NDo=     1
 AX will form     1 AO Fock derivatives at one time.
 LinEq1:  Iter=  1 NonCon=     1 RMS=3.76D-04 Max=8.38D-03 NDo=     1
 LinEq1:  Iter=  2 NonCon=     1 RMS=2.03D-04 Max=7.70D-03 NDo=     1
 LinEq1:  Iter=  3 NonCon=     1 RMS=8.23D-05 Max=1.15D-03 NDo=     1
 LinEq1:  Iter=  4 NonCon=     1 RMS=4.33D-05 Max=7.36D-04 NDo=     1
 LinEq1:  Iter=  5 NonCon=     1 RMS=3.17D-05 Max=8.12D-04 NDo=     1
 LinEq1:  Iter=  6 NonCon=     1 RMS=1.85D-05 Max=5.90D-04 NDo=     1
 LinEq1:  Iter=  7 NonCon=     1 RMS=4.75D-06 Max=8.10D-05 NDo=     1
 LinEq1:  Iter=  8 NonCon=     1 RMS=1.53D-06 Max=2.67D-05 NDo=     1
 LinEq1:  Iter=  9 NonCon=     1 RMS=4.87D-07 Max=8.90D-06 NDo=     1
 LinEq1:  Iter= 10 NonCon=     1 RMS=1.61D-07 Max=2.53D-06 NDo=     1
 LinEq1:  Iter= 11 NonCon=     1 RMS=4.99D-08 Max=6.24D-07 NDo=     1
 LinEq1:  Iter= 12 NonCon=     1 RMS=1.96D-08 Max=3.11D-07 NDo=     1
 LinEq1:  Iter= 13 NonCon=     1 RMS=7.83D-09 Max=1.04D-07 NDo=     1
 LinEq1:  Iter= 14 NonCon=     1 RMS=2.34D-09 Max=3.56D-08 NDo=     1
 LinEq1:  Iter= 15 NonCon=     1 RMS=6.05D-10 Max=1.75D-08 NDo=     1
 LinEq1:  Iter= 16 NonCon=     1 RMS=1.87D-10 Max=7.59D-09 NDo=     1
 LinEq1:  Iter= 17 NonCon=     1 RMS=6.44D-11 Max=2.56D-09 NDo=     1
 LinEq1:  Iter= 18 NonCon=     0 RMS=1.79D-11 Max=3.97D-10 NDo=     1
 Linear equations converged to 1.000D-10 1.000D-09 after    18 iterations.
 End of Minotr F.D. properties file   721 does not exist.
 End of Minotr F.D. properties file   722 does not exist.
 End of Minotr F.D. properties file   788 does not exist.
 Calling FoFJK, ICntrl=  10002127 FMM=F ISym2X=0 I1Cent= 0 IOpClX= 1 NMat=1 NMatS=1 NMatT=0.
 ***** Axes restored to original set *****
 -------------------------------------------------------------------
 Center     Atomic                   Forces (Hartrees/Bohr)
 Number     Number              X              Y              Z
 -------------------------------------------------------------------
      1        6           0.000120300   -0.000077477    0.000065653
      2        1           0.000015600    0.000010980   -0.000008983
      3        1           0.000004011    0.000008666   -0.000002163
      4        1           0.000001386    0.000001467    0.000008541
      5        8           0.000664107   -0.000384820   -0.000678667
      6        8          -0.000560137    0.000520917    0.000660500
      7        6          -0.000045244    0.000050968    0.000062636
      8        1          -0.000012727   -0.000011997   -0.000001141
      9        1          -0.000024829    0.000011511   -0.000009827
     10        1          -0.000137081   -0.000116136   -0.000090435
     11        1          -0.000025386   -0.000014079   -0.000006114
 -------------------------------------------------------------------
 Cartesian Forces:  Max     0.000678667 RMS     0.000255102

 GradGradGradGradGradGradGradGradGradGradGradGradGradGradGradGradGradGrad
 Berny optimization.
 FormGI is forming the generalized inverse of G from B-inverse, IUseBI=4.
 Internal  Forces:  Max     0.001100841 RMS     0.000217645
 Search for a saddle point.
 Step number   2 out of a maximum of  100
 All quantities printed in internal units (Hartrees-Bohrs-Radians)
 Swapping is turned off.
 Update second derivatives using D2CorX and points    1    2
 ITU=  0  0
     Eigenvalues ---   -0.07967   0.00059   0.00650   0.01654   0.02504
     Eigenvalues ---    0.03477   0.05190   0.05379   0.08089   0.08171
     Eigenvalues ---    0.08487   0.08556   0.10378   0.13319   0.16603
     Eigenvalues ---    0.17593   0.18399   0.19472   0.27837   0.32664
     Eigenvalues ---    0.33466   0.34547   0.35718   0.35873   0.35986
     Eigenvalues ---    0.36268   0.43004
 Eigenvectors required to have negative eigenvalues:
                          R9        R6        R5        A12       A10
   1                    0.70792  -0.63035   0.15428  -0.14828  -0.11411
                          A14       A9        A13       A8        A11
   1                   -0.09455   0.08589   0.08402  -0.08190   0.08084
 RFO step:  Lambda0=9.834676823D-10 Lambda=-8.87115580D-06.
 Linear search not attempted -- option 19 set.
 Iteration  1 RMS(Cart)=  0.01582319 RMS(Int)=  0.00012388
 Iteration  2 RMS(Cart)=  0.00014449 RMS(Int)=  0.00000350
 Iteration  3 RMS(Cart)=  0.00000001 RMS(Int)=  0.00000350
 Variable       Old X    -DE/DX   Delta X   Delta X   Delta X     New X
                                 (Linear)    (Quad)   (Total)
    R1        2.06265  -0.00002   0.00000  -0.00010  -0.00010   2.06255
    R2        2.05597   0.00000   0.00000   0.00005   0.00005   2.05601
    R3        2.05708   0.00001   0.00000  -0.00000  -0.00000   2.05707
    R4        2.68306   0.00014   0.00000   0.00030   0.00030   2.68336
    R5        2.65947   0.00110   0.00000   0.00363   0.00363   2.66310
    R6        2.14600   0.00025   0.00000   0.00080   0.00080   2.14680
    R7        2.04445   0.00000   0.00000   0.00002   0.00002   2.04447
    R8        2.04564  -0.00000   0.00000  -0.00001  -0.00001   2.04564
    R9        2.63392   0.00006   0.00000  -0.00031  -0.00031   2.63362
   R10        2.04391   0.00001   0.00000   0.00001   0.00001   2.04392
    A1        1.91730   0.00000   0.00000   0.00005   0.00005   1.91735
    A2        1.91688   0.00000   0.00000   0.00015   0.00015   1.91703
    A3        1.93469   0.00001   0.00000   0.00020   0.00020   1.93489
    A4        1.92480  -0.00000   0.00000  -0.00011  -0.00011   1.92468
    A5        1.83639  -0.00001   0.00000  -0.00038  -0.00038   1.83601
    A6        1.93252   0.00000   0.00000   0.00007   0.00007   1.93260
    A7        1.88021   0.00012   0.00000  -0.00043  -0.00043   1.87979
    A8        1.81897   0.00035   0.00000   0.00041   0.00041   1.81938
    A9        2.01325  -0.00003   0.00000   0.00005   0.00006   2.01331
   A10        1.78799   0.00002   0.00000  -0.00018  -0.00017   1.78782
   A11        2.01308  -0.00001   0.00000  -0.00023  -0.00023   2.01285
   A12        1.75054   0.00002   0.00000   0.00043   0.00043   1.75097
   A13        2.01812  -0.00002   0.00000  -0.00020  -0.00021   2.01792
   A14        1.82877   0.00005   0.00000   0.00029   0.00029   1.82906
   A15        3.11320   0.00025   0.00000   0.00590   0.00590   3.11910
   A16        3.17652  -0.00013   0.00000  -0.00443  -0.00443   3.17208
    D1        1.14362   0.00001   0.00000   0.00095   0.00095   1.14457
    D2       -3.06786   0.00001   0.00000   0.00089   0.00089  -3.06698
    D3       -0.98838   0.00001   0.00000   0.00056   0.00056  -0.98781
    D4       -1.59475  -0.00019   0.00000  -0.00679  -0.00679  -1.60154
    D5       -2.34778  -0.00002   0.00000  -0.02401  -0.02399  -2.37178
    D6       -0.27241  -0.00004   0.00000  -0.02349  -0.02350  -0.29591
    D7        1.81921   0.00001   0.00000  -0.02243  -0.02243   1.79678
         Item               Value     Threshold  Converged?
 Maximum Force            0.001101     0.000450     NO 
 RMS     Force            0.000218     0.000300     YES
 Maximum Displacement     0.040874     0.001800     NO 
 RMS     Displacement     0.015819     0.001200     NO 
 Predicted change in Energy=-4.442888D-06
 GradGradGradGradGradGradGradGradGradGradGradGradGradGradGradGradGradGrad

                          Input orientation:                          
 ---------------------------------------------------------------------
 Center     Atomic      Atomic             Coordinates (Angstroms)
 Number     Number       Type             X           Y           Z
 ---------------------------------------------------------------------
      1          6           0        1.556038   -0.672509    0.191801
      2          1           0        0.873416   -1.471372    0.486955
      3          1           0        2.311366   -1.063671   -0.486586
      4          1           0        2.027349   -0.244334    1.074687
      5          8           0        0.873131    0.328298   -0.548706
      6          8           0       -0.056177    0.941461    0.315244
      7          6           0       -2.160587   -0.412047   -0.054376
      8          1           0       -2.929174    0.345947   -0.126485
      9          1           0       -1.897862   -0.895923   -0.986392
     10          1           0       -1.011789    0.345483    0.166234
     11          1           0       -2.231884   -1.062854    0.806566
 ---------------------------------------------------------------------
                    Distance matrix (angstroms):
                    1          2          3          4          5
     1  C    0.000000
     2  H    1.091454   0.000000
     3  H    1.087996   1.783733   0.000000
     4  H    1.088557   1.783988   1.785932   0.000000
     5  O    1.419975   2.076393   2.002488   2.072567   0.000000
     6  O    2.284595   2.591406   3.204488   2.514745   1.409252
     7  C    3.733864   3.258892   4.539799   4.340704   3.161631
     8  H    4.610389   4.258949   5.438745   5.134040   3.825716
     9  H    3.656157   3.190905   4.242116   4.481060   3.060831
    10  H    2.762372   2.637768   3.668139   3.226380   2.016025
    11  H    3.857287   3.148321   4.723702   4.345449   3.662402
                    6          7          8          9         10
     6  O    0.000000
     7  C    2.529257   0.000000
     8  H    2.967132   1.081888   0.000000
     9  H    2.908959   1.082504   1.829013   0.000000
    10  H    1.136040   1.393649   1.939601   1.911743   0.000000
    11  H    2.998729   1.081598   1.827982   1.831431   1.970298
                   11
    11  H    0.000000
 Stoichiometry    C2H7O2(2)
 Framework group  C1[X(C2H7O2)]
 Deg. of freedom    27
 Full point group                 C1      NOp   1
 Largest Abelian subgroup         C1      NOp   1
 Largest concise Abelian subgroup C1      NOp   1
                         Standard orientation:                         
 ---------------------------------------------------------------------
 Center     Atomic      Atomic             Coordinates (Angstroms)
 Number     Number       Type             X           Y           Z
 ---------------------------------------------------------------------
      1          6           0        1.561880    0.647902   -0.180966
      2          1           0        0.888414    1.457056   -0.469038
      3          1           0        2.318397    1.023283    0.504970
      4          1           0        2.032365    0.225700   -1.067163
      5          8           0        0.866133   -0.354870    0.544785
      6          8           0       -0.065837   -0.948246   -0.330045
      7          6           0       -2.158094    0.421705    0.047896
      8          1           0       -2.934471   -0.329373    0.107911
      9          1           0       -1.894224    0.891662    0.986686
     10          1           0       -1.016042   -0.344572   -0.177480
     11          1           0       -2.219523    1.083519   -0.805382
 ---------------------------------------------------------------------
 Rotational constants (GHZ):          12.9770709           3.7163986           3.2691311
 Standard basis: CC-pVTZ (5D, 7F)
 There are   245 symmetry adapted cartesian basis functions of A   symmetry.
 There are   218 symmetry adapted basis functions of A   symmetry.
   218 basis functions,   327 primitive gaussians,   245 cartesian basis functions
    18 alpha electrons       17 beta electrons
       nuclear repulsion energy       130.7964507368 Hartrees.
 NAtoms=   11 NActive=   11 NUniq=   11 SFac= 1.00D+00 NAtFMM=   60 NAOKFM=F Big=F
 Integral buffers will be    131072 words long.
 Raffenetti 2 integral format.
 Two-electron integral symmetry is turned on.
 Nuclear repulsion after empirical dispersion term =      130.7927523902 Hartrees.
 One-electron integrals computed using PRISM.
 NBasis=   218 RedAO= T EigKep=  1.76D-03  NBF=   218
 NBsUse=   218 1.00D-06 EigRej= -1.00D+00 NBFU=   218
 Initial guess from the checkpoint file:  "/localscratch/341085/Gau-60926.chk"
 B after Tr=    -0.000000   -0.000000   -0.000000
         Rot=    0.999999   -0.001240    0.000409    0.000510 Ang=  -0.16 deg.
 Initial guess <Sx>= 0.0000 <Sy>= 0.0000 <Sz>= 0.5000 <S**2>= 0.7681 S= 0.5090
 ExpMin= 1.03D-01 ExpMax= 1.53D+04 ExpMxC= 5.22D+02 IAcc=3 IRadAn=         5 AccDes= 0.00D+00
 Harris functional with IExCor=  419 and IRadAn=       5 diagonalized for initial guess.
 HarFok:  IExCor=  419 AccDes= 0.00D+00 IRadAn=         5 IDoV= 1 UseB2=F ITyADJ=14
 ICtDFT=  3500011 ScaDFX=  1.000000  1.000000  1.000000  1.000000
 FoFCou: FMM=F IPFlag=           0 FMFlag=      100000 FMFlg1=           0
         NFxFlg=           0 DoJE=T BraDBF=F KetDBF=T FulRan=T
         wScrn=  0.000000 ICntrl=       500 IOpCl=  0 I1Cent=   200000004 NGrid=           0
         NMat0=    1 NMatS0=      1 NMatT0=    0 NMatD0=    1 NMtDS0=    0 NMtDT0=    0
 Petite list used in FoFCou.
 Keep R1 and R2 ints in memory in canonical form, NReq=612885869.
 Requested convergence on RMS density matrix=1.00D-08 within 128 cycles.
 Requested convergence on MAX density matrix=1.00D-06.
 Requested convergence on             energy=1.00D-06.
 No special actions if energy rises.
 Integral accuracy reduced to 1.0D-05 until final iterations.
 Initial convergence to 1.0D-05 achieved.  Increase integral accuracy.
 SCF Done:  E(UB2PLYPD3) =  -230.321141901     A.U. after   11 cycles
            NFock= 11  Conv=0.81D-08     -V/T= 2.0042
 <Sx>= 0.0000 <Sy>= 0.0000 <Sz>= 0.5000 <S**2>= 0.7681 S= 0.5090
 <L.S>=  0.00000000000    
 Annihilation of the first spin contaminant:
 S**2 before annihilation     0.7681,   after     0.7501
 DoSCS=T DFT=T ScalE2(SS,OS)=  0.270000  0.270000
 ExpMin= 1.03D-01 ExpMax= 1.53D+04 ExpMxC= 5.22D+02 IAcc=3 IRadAn=         5 AccDes= 0.00D+00
 HarFok:  IExCor=  205 AccDes= 0.00D+00 IRadAn=         5 IDoV=-2 UseB2=F ITyADJ=14
 ICtDFT= 12500011 ScaDFX=  1.000000  1.000000  1.000000  1.000000
 Range of M.O.s used for correlation:     5   218
 NBasis=   218 NAE=    18 NBE=    17 NFC=     4 NFV=     0
 NROrb=    214 NOA=    14 NOB=    13 NVA=   200 NVB=   201

 **** Warning!!: The largest alpha MO coefficient is  0.10745657D+02


 **** Warning!!: The largest beta MO coefficient is  0.10544933D+02

 DoSCS=T DFT=T ScalE2(SS,OS)=  0.270000  0.270000
 Fully direct method using O(ONN) memory.
 JobTyp=2 Pass  1:  I=   5 to  18 NPSUse= 40 ParTrn=T ParDer=T DoDerP=T.
 JobTyp=3 Pass  1:  I=   5 to  17 NPSUse= 40 ParTrn=T ParDer=T DoDerP=T.
 Spin components of T(2) and E(2):
     alpha-alpha T2 =       0.4437587860D-01 E2=     -0.3429178012D-01
     alpha-beta  T2 =       0.2729390753D+00 E2=     -0.2114435905D+00
     beta-beta   T2 =       0.4650068205D-01 E2=     -0.3203829311D-01
 (S**2,0)=  0.76810D+00           (S**2,1)=  0.74295D+00
 Scaling Projection term by:   0.270000
 E(PUHF)=      -0.23032719838D+03        E(PMP2)=      -0.23059941986D+03
 E2(B2PLYPD3) =    -0.2777736638D+00 E(B2PLYPD3) =    -0.23059891556485D+03
          IDoAtm=11111111111
          Differentiating once with respect to electric field.
                with respect to dipole field.
          Differentiating once with respect to nuclear coordinates.
 Keep R1 and R2 ints in memory in canonical form, NReq=612894013.
          There are     1 degrees of freedom in the 1st order CPHF.  IDoFFX=0 NUNeed=     1.
 LinEq1:  Iter=  0 NonCon=     1 RMS=1.22D-03 Max=7.29D-02 NDo=     1
 AX will form     1 AO Fock derivatives at one time.
 LinEq1:  Iter=  1 NonCon=     1 RMS=3.75D-04 Max=8.37D-03 NDo=     1
 LinEq1:  Iter=  2 NonCon=     1 RMS=2.03D-04 Max=7.68D-03 NDo=     1
 LinEq1:  Iter=  3 NonCon=     1 RMS=8.25D-05 Max=1.18D-03 NDo=     1
 LinEq1:  Iter=  4 NonCon=     1 RMS=4.37D-05 Max=7.50D-04 NDo=     1
 LinEq1:  Iter=  5 NonCon=     1 RMS=3.22D-05 Max=8.18D-04 NDo=     1
 LinEq1:  Iter=  6 NonCon=     1 RMS=1.88D-05 Max=6.01D-04 NDo=     1
 LinEq1:  Iter=  7 NonCon=     1 RMS=4.81D-06 Max=8.23D-05 NDo=     1
 LinEq1:  Iter=  8 NonCon=     1 RMS=1.56D-06 Max=2.74D-05 NDo=     1
 LinEq1:  Iter=  9 NonCon=     1 RMS=4.93D-07 Max=9.02D-06 NDo=     1
 LinEq1:  Iter= 10 NonCon=     1 RMS=1.64D-07 Max=2.58D-06 NDo=     1
 LinEq1:  Iter= 11 NonCon=     1 RMS=5.17D-08 Max=6.29D-07 NDo=     1
 LinEq1:  Iter= 12 NonCon=     1 RMS=2.08D-08 Max=3.24D-07 NDo=     1
 LinEq1:  Iter= 13 NonCon=     1 RMS=8.15D-09 Max=1.13D-07 NDo=     1
 LinEq1:  Iter= 14 NonCon=     1 RMS=2.47D-09 Max=5.91D-08 NDo=     1
 LinEq1:  Iter= 15 NonCon=     1 RMS=6.93D-10 Max=2.70D-08 NDo=     1
 LinEq1:  Iter= 16 NonCon=     1 RMS=2.25D-10 Max=8.97D-09 NDo=     1
 LinEq1:  Iter= 17 NonCon=     1 RMS=7.34D-11 Max=2.13D-09 NDo=     1
 LinEq1:  Iter= 18 NonCon=     0 RMS=1.86D-11 Max=2.63D-10 NDo=     1
 Linear equations converged to 1.000D-10 1.000D-09 after    18 iterations.
 End of Minotr F.D. properties file   721 does not exist.
 End of Minotr F.D. properties file   722 does not exist.
 End of Minotr F.D. properties file   788 does not exist.
 Calling FoFJK, ICntrl=  10002127 FMM=F ISym2X=0 I1Cent= 0 IOpClX= 1 NMat=1 NMatS=1 NMatT=0.
 ***** Axes restored to original set *****
 -------------------------------------------------------------------
 Center     Atomic                   Forces (Hartrees/Bohr)
 Number     Number              X              Y              Z
 -------------------------------------------------------------------
      1        6           0.000002064    0.000014300    0.000009308
      2        1           0.000005264    0.000001184   -0.000001722
      3        1           0.000000778    0.000003038   -0.000000691
      4        1          -0.000000177   -0.000001314   -0.000000904
      5        8           0.000023141   -0.000036299   -0.000025035
      6        8          -0.000025541    0.000018232    0.000037919
      7        6          -0.000013498   -0.000008585    0.000010106
      8        1           0.000005632    0.000000211   -0.000001388
      9        1          -0.000013706    0.000010820   -0.000002627
     10        1           0.000014881    0.000001011   -0.000024638
     11        1           0.000001161   -0.000002598   -0.000000327
 -------------------------------------------------------------------
 Cartesian Forces:  Max     0.000037919 RMS     0.000014338

 GradGradGradGradGradGradGradGradGradGradGradGradGradGradGradGradGradGrad
 Berny optimization.
 FormGI is forming the generalized inverse of G from B-inverse, IUseBI=4.
 Internal  Forces:  Max     0.000049522 RMS     0.000017168
 Search for a saddle point.
 Step number   3 out of a maximum of  100
 All quantities printed in internal units (Hartrees-Bohrs-Radians)
 Swapping is turned off.
 Update second derivatives using D2CorX and points    1    2    3
 ITU=  0  0  0
     Eigenvalues ---   -0.07970   0.00058   0.00650   0.01627   0.02487
     Eigenvalues ---    0.03364   0.05190   0.05378   0.08089   0.08168
     Eigenvalues ---    0.08487   0.08556   0.10376   0.13319   0.16603
     Eigenvalues ---    0.17583   0.18398   0.19473   0.27804   0.32661
     Eigenvalues ---    0.33464   0.34546   0.35717   0.35873   0.35986
     Eigenvalues ---    0.36261   0.42990
 Eigenvectors required to have negative eigenvalues:
                          R9        R6        R5        A12       A10
   1                    0.70792  -0.63026   0.15456  -0.14787  -0.11437
                          A14       A9        A13       A8        A11
   1                   -0.09452   0.08585   0.08430  -0.08171   0.08065
 RFO step:  Lambda0=1.761021169D-09 Lambda=-8.94490549D-07.
 Linear search not attempted -- option 19 set.
 Iteration  1 RMS(Cart)=  0.01101857 RMS(Int)=  0.00007336
 Iteration  2 RMS(Cart)=  0.00007909 RMS(Int)=  0.00000082
 Iteration  3 RMS(Cart)=  0.00000000 RMS(Int)=  0.00000082
 Variable       Old X    -DE/DX   Delta X   Delta X   Delta X     New X
                                 (Linear)    (Quad)   (Total)
    R1        2.06255  -0.00000   0.00000  -0.00003  -0.00003   2.06252
    R2        2.05601  -0.00000   0.00000   0.00001   0.00001   2.05602
    R3        2.05707  -0.00000   0.00000  -0.00001  -0.00001   2.05707
    R4        2.68336  -0.00001   0.00000  -0.00003  -0.00003   2.68333
    R5        2.66310   0.00004   0.00000   0.00032   0.00032   2.66342
    R6        2.14680   0.00001   0.00000   0.00018   0.00018   2.14698
    R7        2.04447  -0.00000   0.00000   0.00001   0.00001   2.04448
    R8        2.04564  -0.00001   0.00000  -0.00003  -0.00003   2.04560
    R9        2.63362   0.00002   0.00000  -0.00021  -0.00021   2.63340
   R10        2.04392   0.00000   0.00000   0.00000   0.00000   2.04393
    A1        1.91735  -0.00000   0.00000   0.00000   0.00000   1.91735
    A2        1.91703  -0.00000   0.00000   0.00004   0.00004   1.91706
    A3        1.93489   0.00001   0.00000   0.00006   0.00006   1.93495
    A4        1.92468  -0.00000   0.00000  -0.00005  -0.00005   1.92463
    A5        1.83601  -0.00000   0.00000  -0.00006  -0.00006   1.83595
[...]
 All quantities printed in internal units (Hartrees-Bohrs-Radians)
 Swapping is turned off.
 Second derivative matrix not updated -- analytic derivatives used.
 ITU=  0
     Eigenvalues ---   -0.07773   0.00026   0.00629   0.01473   0.02260
     Eigenvalues ---    0.02926   0.05058   0.05220   0.08101   0.08125
     Eigenvalues ---    0.08493   0.08535   0.10316   0.13044   0.15606
     Eigenvalues ---    0.16662   0.18161   0.19067   0.26038   0.32048
     Eigenvalues ---    0.33515   0.34488   0.35554   0.36044   0.36146
     Eigenvalues ---    0.36263   0.40564
 Eigenvectors required to have negative eigenvalues:
                          R9        R6        R5        A12       A10
   1                    0.71261  -0.62441   0.15499  -0.14630  -0.10943
                          A8        A14       A9        A13       A11
   1                   -0.09651  -0.09399   0.08411   0.08167   0.08018
 Angle between quadratic step and forces=  49.89 degrees.
 Linear search not attempted -- option 19 set.
 Iteration  1 RMS(Cart)=  0.00007601 RMS(Int)=  0.00000000
 Iteration  2 RMS(Cart)=  0.00000000 RMS(Int)=  0.00000000
 Variable       Old X    -DE/DX   Delta X   Delta X   Delta X     New X
                                 (Linear)    (Quad)   (Total)
    R1        2.06252   0.00000   0.00000   0.00000   0.00000   2.06252
    R2        2.05602   0.00000   0.00000   0.00000   0.00000   2.05602
    R3        2.05707  -0.00000   0.00000   0.00000   0.00000   2.05707
    R4        2.68333   0.00000   0.00000   0.00000   0.00000   2.68334
    R5        2.66322   0.00000   0.00000   0.00001   0.00001   2.66322
    R6        2.14688  -0.00000   0.00000  -0.00000  -0.00000   2.14687
    R7        2.04450   0.00000   0.00000  -0.00000  -0.00000   2.04450
    R8        2.04558   0.00000   0.00000   0.00000   0.00000   2.04558
    R9        2.63347  -0.00000   0.00000   0.00000   0.00000   2.63347
   R10        2.04393  -0.00000   0.00000   0.00000   0.00000   2.04393
    A1        1.91734   0.00000   0.00000  -0.00000  -0.00000   1.91734
    A2        1.91707   0.00000   0.00000  -0.00000  -0.00000   1.91707
    A3        1.93495  -0.00000   0.00000  -0.00000  -0.00000   1.93495
    A4        1.92464   0.00000   0.00000   0.00000   0.00000   1.92464
    A5        1.83595   0.00000   0.00000   0.00000   0.00000   1.83595
    A6        1.93260  -0.00000   0.00000   0.00000   0.00000   1.93261
    A7        1.87979  -0.00000   0.00000  -0.00000  -0.00000   1.87979
    A8        1.81945  -0.00000   0.00000  -0.00001  -0.00001   1.81944
    A9        2.01346   0.00000   0.00000   0.00000   0.00000   2.01346
   A10        1.78772   0.00000   0.00000   0.00001   0.00001   1.78773
   A11        2.01260  -0.00000   0.00000  -0.00000  -0.00000   2.01260
   A12        1.75124   0.00000   0.00000  -0.00000  -0.00000   1.75123
   A13        2.01777  -0.00000   0.00000  -0.00000  -0.00000   2.01777
   A14        1.82923  -0.00000   0.00000  -0.00001  -0.00001   1.82923
   A15        3.12165  -0.00000   0.00000  -0.00004  -0.00004   3.12161
   A16        3.17063   0.00000   0.00000   0.00002   0.00002   3.17065
    D1        1.14494  -0.00000   0.00000  -0.00001  -0.00001   1.14493
    D2       -3.06663  -0.00000   0.00000  -0.00001  -0.00001  -3.06664
    D3       -0.98754   0.00000   0.00000  -0.00001  -0.00001  -0.98755
    D4       -1.60362   0.00000   0.00000   0.00007   0.00007  -1.60355
    D5       -2.41280  -0.00000   0.00000  -0.00003  -0.00003  -2.41282
    D6       -0.33649   0.00000   0.00000  -0.00002  -0.00002  -0.33651
    D7        1.75653  -0.00000   0.00000  -0.00003  -0.00003   1.75649
         Item               Value     Threshold  Converged?
 Maximum Force            0.000002     0.000450     YES
 RMS     Force            0.000001     0.000300     YES
 Maximum Displacement     0.000182     0.001800     YES
 RMS     Displacement     0.000076     0.001200     YES
 Predicted change in Energy=-1.065327D-10
 Optimization completed.
    -- Stationary point found.
                           ----------------------------
                           !   Optimized Parameters   !
                           ! (Angstroms and Degrees)  !
 --------------------------                            --------------------------
 ! Name  Definition              Value          Derivative Info.                !
 --------------------------------------------------------------------------------
 ! R1    R(1,2)                  1.0914         -DE/DX =    0.0                 !
 ! R2    R(1,3)                  1.088          -DE/DX =    0.0                 !
 ! R3    R(1,4)                  1.0886         -DE/DX =    0.0                 !
 ! R4    R(1,5)                  1.42           -DE/DX =    0.0                 !
 ! R5    R(5,6)                  1.4093         -DE/DX =    0.0                 !
 ! R6    R(6,10)                 1.1361         -DE/DX =    0.0                 !
 ! R7    R(7,8)                  1.0819         -DE/DX =    0.0                 !
 ! R8    R(7,9)                  1.0825         -DE/DX =    0.0                 !
 ! R9    R(7,10)                 1.3936         -DE/DX =    0.0                 !
 ! R10   R(7,11)                 1.0816         -DE/DX =    0.0                 !
 ! A1    A(2,1,3)              109.8554         -DE/DX =    0.0                 !
 ! A2    A(2,1,4)              109.84           -DE/DX =    0.0                 !
 ! A3    A(2,1,5)              110.8646         -DE/DX =    0.0                 !
 ! A4    A(3,1,4)              110.2738         -DE/DX =    0.0                 !
 ! A5    A(3,1,5)              105.1922         -DE/DX =    0.0                 !
 ! A6    A(4,1,5)              110.7301         -DE/DX =    0.0                 !
 ! A7    A(1,5,6)              107.7039         -DE/DX =    0.0                 !
 ! A8    A(5,6,10)             104.2467         -DE/DX =    0.0                 !
 ! A9    A(8,7,9)              115.3629         -DE/DX =    0.0                 !
 ! A10   A(8,7,10)             102.4288         -DE/DX =    0.0                 !
 ! A11   A(8,7,11)             115.3134         -DE/DX =    0.0                 !
 ! A12   A(9,7,10)             100.3386         -DE/DX =    0.0                 !
 ! A13   A(9,7,11)             115.6097         -DE/DX =    0.0                 !
 ! A14   A(10,7,11)            104.8074         -DE/DX =    0.0                 !
 ! A15   L(6,10,7,2,-1)        178.8576         -DE/DX =    0.0                 !
 ! A16   L(6,10,7,2,-2)        181.6637         -DE/DX =    0.0                 !
 ! D1    D(2,1,5,6)             65.6            -DE/DX =    0.0                 !
 ! D2    D(3,1,5,6)           -175.7049         -DE/DX =    0.0                 !
 ! D3    D(4,1,5,6)            -56.5821         -DE/DX =    0.0                 !
 ! D4    D(1,5,6,10)           -91.8805         -DE/DX =    0.0                 !
 ! D5    D(5,6,7,8)           -138.243          -DE/DX =    0.0                 !
 ! D6    D(5,6,7,9)            -19.2794         -DE/DX =    0.0                 !
 ! D7    D(5,6,7,11)           100.6415         -DE/DX =    0.0                 !
 --------------------------------------------------------------------------------
 GradGradGradGradGradGradGradGradGradGradGradGradGradGradGradGradGradGrad


 ----------------------------------------------------------------------

 Electric dipole moment (input orientation):
 (Debye = 10**-18 statcoulomb cm , SI units = C m)
                  (au)            (Debye)         (10**-30 SI)
   Tot        0.859560D+00      0.218478D+01      0.728765D+01
   x         -0.160225D+00     -0.407252D+00     -0.135845D+01
   y         -0.823931D+00     -0.209422D+01     -0.698557D+01
   z          0.185227D+00      0.470801D+00      0.157042D+01

 Dipole polarizability, Alpha (input orientation).
 (esu units = cm**3 , SI units = C**2 m**2 J**-1)
 Alpha(0;0):
               (au)            (10**-24 esu)      (10**-40 SI)
   iso        0.481511D+02      0.713525D+01      0.793904D+01
   aniso      0.380636D+02      0.564044D+01      0.627584D+01
   xx         0.727671D+02      0.107830D+02      0.119977D+02
   yx         0.463051D+01      0.686170D+00      0.763467D+00
   yy         0.382104D+02      0.566219D+01      0.630004D+01
   zx         0.273469D+00      0.405239D-01      0.450889D-01
   zy         0.116645D+01      0.172851D+00      0.192322D+00
   zz         0.334756D+02      0.496058D+01      0.551939D+01

 ----------------------------------------------------------------------

 Dipole orientation:
     6          3.11625303         -0.38442445          0.75073067
     1          2.19190827         -0.01091551          2.55629069
     1          4.37830915         -1.99727378          0.93277266
     1          4.16666096          1.27802824          0.14705979
     8          1.32207636         -1.10209721         -1.11103202
     8         -0.25747224          0.99374845         -1.56399752
     6         -3.87537006          0.30925766          1.48350308
     1         -5.51620809          0.80349466          0.36844756
     1         -3.63395211         -1.68883625          1.84920454
     1         -1.89714769          0.72311111         -0.20484410
     1         -3.48444214          1.54955653          3.06036299

 Electric dipole moment (dipole orientation):
 (Debye = 10**-18 statcoulomb cm , SI units = C m)
                  (au)            (Debye)         (10**-30 SI)
   Tot        0.859560D+00      0.218478D+01      0.728765D+01
   x          0.000000D+00      0.000000D+00      0.000000D+00
   y          0.000000D+00      0.000000D+00      0.000000D+00
   z          0.859560D+00      0.218478D+01      0.728765D+01

 Dipole polarizability, Alpha (dipole orientation).
 (esu units = cm**3 , SI units = C**2 m**2 J**-1)
 Alpha(0;0):
               (au)            (10**-24 esu)      (10**-40 SI)
   iso        0.481511D+02      0.713525D+01      0.793904D+01
   aniso      0.380636D+02      0.564044D+01      0.627584D+01
   xx         0.693678D+02      0.102793D+02      0.114372D+02
   yx        -0.444682D+01     -0.658951D+00     -0.733181D+00
   yy         0.347432D+02      0.514842D+01      0.572838D+01
   zx        -0.108300D+02     -0.160484D+01     -0.178563D+01
   zy        -0.657232D+00     -0.973917D-01     -0.108363D+00
   zz         0.403421D+02      0.597809D+01      0.665152D+01

 ----------------------------------------------------------------------
 1\1\GINC-N58\Freq\UB2PLYPD3-FC\CC-pVTZ\C2H7O2(2)\ROOT\05-Jun-2019\0\\#
 N Geom=AllCheck Guess=TCheck SCRF=Check GenChk UB2PLYPD3(FC)/CC-pVTZ F
 req\\Title Card Required\\0,2\C,1.5577611289,-0.6728657122,0.198001282
 3\H,0.8754449191,-1.4685760216,0.5021761972\H,2.3140265112,-1.07169548
 48,-0.4748555036\H,2.0279489902,-0.2336457683,1.0760426895\O,0.8749376
 292,0.3183723101,-0.5553142239\O,-0.0553825379,0.9417074165,0.30032692
 88\C,-2.1625246248,-0.4110901472,-0.0562326531\H,-2.9344536819,0.34598
 86903,-0.0945412795\H,-1.9190666951,-0.8734434747,-1.004235195\H,-1.01
 12729323,0.3448804416,0.1562975864\H,-2.2135927066,-1.0811532498,0.791
 2751709\\Version=ES64L-G16RevB.01\State=2-A\HF=-230.3211436\MP2=-230.5
 989163\PUHF=-230.3272009\PMP2-0=-230.5994207\S2=0.7681\S2-1=0.742948\S
 2A=0.750142\RMSD=1.093e-09\RMSF=4.504e-07\ZeroPoint=0.0836297\Thermal=
 0.0903531\Dipole=-0.1602254,-0.8239306,0.1852275\DipoleDeriv=0.5574862
 ,-0.0195758,0.0645492,-0.2725714,0.3986952,-0.0931138,0.2546409,-0.078
 1375,0.3588201,-0.0855024,-0.1245341,0.0419511,0.0148266,-0.070077,0.0
 458149,-0.0643073,0.0525885,0.0242034,-0.0456574,0.0649372,0.0541864,0
 .0891133,0.0378645,-0.0085877,0.063275,-0.0267333,-0.0087853,-0.017147
 7,-0.0048769,-0.0522384,-0.0278197,-0.0086744,-0.0799882,-0.1563086,-0
 .0093696,-0.0648869,-0.8130008,-0.1483871,-0.0910593,0.5779005,-0.2087
 679,0.0758547,0.4720866,0.2061297,-0.2893595,0.9533505,0.3864193,-0.01
 43133,-0.0051463,-0.2195819,0.0854499,-0.5630182,-0.1070813,-0.1938309
 ,0.7287408,0.161038,0.0133398,0.4698224,0.1194574,0.0004662,0.173574,0
 .0193559,0.0136641,-0.10404,0.0471778,-0.0039244,-0.0407803,0.0021186,
 -0.000042,-0.0322371,0.0019629,0.0657921,-0.0586954,-0.0137767,0.01864
 85,-0.0538042,0.0168803,-0.0432845,0.0079365,-0.0400555,-0.0212123,-1.
 0567146,-0.3222804,-0.0415949,-0.6832009,-0.0614809,-0.0502109,-0.1131
 501,-0.0624347,0.1231372,-0.0588191,-0.0261413,0.0104554,-0.0683401,-0
 .0064339,0.0676414,-0.0424918,0.043775,-0.007542\Polar=72.7671414,4.63
 05063,38.2103805,0.2734689,1.1664549,33.4756481\PG=C01 [X(C2H7O2)]\NIm
 ag=1\\0.55645305,0.04590891,0.50885360,-0.05142027,0.05770936,0.582814
 38,-0.16496753,-0.12319561,0.04555296,0.16913307,-0.11934614,-0.175320
 77,0.04080211,0.12822563,0.19864167,0.04126597,0.04277571,-0.06762353,
 -0.04476519,-0.05909703,0.07256953,-0.17566999,0.06432091,0.11343699,-
 0.01225565,0.00728735,0.01267408,0.19237633,0.06035508,-0.08176202,-0.
 05492579,-0.01589760,0.01072873,0.01418038,-0.07845640,0.09121445,0.12
 171135,-0.06298419,-0.16251741,0.00375576,-0.00351833,-0.00402615,-0.1
 2646114,0.06306972,0.16616692,-0.09689230,-0.05077772,-0.08270587,-0.0
 0778910,-0.01111014,-0.01686536,0.01193169,0.00903563,0.01832160,0.101
 47364,-0.05297028,-0.10322260,-0.09980893,-0.00892276,-0.00808594,-0.0
 1861759,-0.00573343,-0.00377562,-0.00714362,0.05005656,0.10785135,-0.0
 8661809,-0.09204248,-0.21541422,0.00498084,0.00340382,0.00830550,-0.00
 828317,-0.00817869,-0.01288972,0.10151761,0.09412705,0.23856728,-0.084
 98607,0.04243217,-0.05041699,0.01128349,-0.00237095,0.00794332,-0.0151
 4097,0.01967798,-0.01274489,-0.01185119,0.02101296,-0.01455788,0.24354
 257,0.03004376,-0.12583262,0.08409655,0.02173383,-0.02986945,0.0237584
 4,0.00915993,-0.01194816,0.00654296,0.00625466,0.00481003,0.00349904,-
 0.13488769,0.22704726,-0.02417466,0.05740442,-0.14905246,-0.00704682,0
 .01718563,-0.00909545,0.01156146,-0.01635074,0.01128176,-0.01877774,0.
 02974834,-0.02081171,-0.03319450,-0.06359230,0.28695001,-0.03766739,0.
 02901993,0.02248402,0.00539149,-0.00510410,0.00127355,-0.00141297,0.00
 496299,-0.00450582,0.00399878,-0.00370991,0.00414780,-0.10016403,0.047
 63279,0.04218844,0.15596839,0.02993995,-0.02284354,-0.02712618,-0.0001
 7901,0.00315911,-0.00244631,0.00334494,-0.00382185,0.00374934,-0.00286
 536,0.00270411,-0.00041432,0.05024937,-0.08172194,-0.03985762,-0.03970
 564,0.16518206,0.00081470,-0.00247672,0.01222377,-0.00218597,0.0011204
 1,-0.00049341,-0.00299297,0.00203609,0.00192707,-0.00172414,0.00204086
 ,0.00247344,0.07968084,-0.06372681,-0.11893940,-0.04195020,0.09768568,
 0.12680454,-0.00445269,0.00617046,-0.00373950,0.00044410,-0.00182794,0
 .00145147,0.00033387,-0.00055583,0.00015221,0.00043812,-0.00020685,0.0
 0114315,0.01736706,-0.01925926,-0.01961713,-0.11837424,-0.04770442,0.0
 0810705,0.26791809,-0.00252194,0.00552975,-0.00281426,-0.00036588,-0.0
 0108889,0.00074820,0.00028644,-0.00025086,0.00004986,0.00028932,-0.000
 20416,0.00089278,0.01241081,-0.01282390,-0.01207063,-0.08041024,-0.028
 69276,0.00533016,-0.20775213,0.44909299,-0.00203638,0.00071595,-0.0006
 0978,0.00023156,-0.00043836,0.00050689,0.00011931,0.00004399,-0.000026
 03,0.00028837,-0.00016293,0.00015915,0.00648323,-0.00271900,-0.0041448
 0,-0.02436503,-0.00839234,0.00505639,-0.07665886,-0.05019538,0.5673707
 2,0.00072963,-0.00111507,0.00058697,0.00009917,0.00015895,-0.00012565,
 -0.00008360,0.00002428,0.00001045,-0.00008282,0.00004745,-0.00019912,-
 0.00268343,0.00216414,0.00221008,0.00831365,0.00096057,-0.00198921,-0.
 18376963,0.16750690,-0.00224382,0.19235896,0.00035082,-0.00136218,0.00
 077212,0.00013887,0.00029132,-0.00020716,-0.00007656,0.00012340,-0.000
 03776,-0.00002492,0.00008589,-0.00019654,-0.00251139,0.00205437,0.0017
 6174,0.00698215,0.00199652,-0.00165041,0.15432484,-0.17873894,0.010174
 54,-0.16875277,0.19133458,0.00004208,-0.00010237,0.00006755,0.00003558
 ,-0.00002055,-0.00013983,-0.00006223,-0.00001345,0.00001054,0.00000217
 ,0.00001694,-0.00002999,-0.00006139,0.00080315,0.00063875,0.00188295,0
 .00010282,-0.00085955,-0.00367555,0.01294676,-0.05152536,0.00417187,-0
 .01087372,0.04499189,0.00017863,-0.00052964,0.00038120,-0.00027838,0.0
 0020588,-0.00037740,-0.00011491,0.00016212,-0.00005680,0.00004523,-0.0
 0005332,-0.00010692,-0.00076237,0.00349401,0.00345061,0.00917295,0.001
 21608,-0.00316369,-0.03980281,0.03876248,0.05214332,-0.00082675,0.0089
 1944,0.01981540,0.04331004,0.00021423,-0.00010237,0.00022245,-0.000168
 17,0.00008420,-0.00008640,-0.00004444,0.00008499,-0.00004224,-0.000015
 56,-0.00009117,-0.00003219,-0.00107531,0.00205758,0.00221824,0.0060309
 2,0.00058205,-0.00143167,0.04519714,-0.09775975,-0.10989446,0.00159629
 ,-0.00522559,-0.01756946,-0.04053578,0.09741887,-0.00009985,-0.0003431
 8,0.00010578,-0.00005427,0.00013264,-0.00021618,-0.00000249,0.00001588
 ,-0.00001061,0.00004446,0.00009639,-0.00004318,-0.00086718,0.00087488,
 0.00095329,0.00186527,0.00038955,-0.00018218,0.06341416,-0.10454084,-0
 .27383093,-0.00246384,0.00252005,0.00481265,-0.06385265,0.11631121,0.2
 8654161,0.00621946,-0.01118544,0.00518695,-0.00054860,0.00337586,-0.00
 227157,0.00004106,0.00050356,-0.00008290,-0.00111139,0.00040400,-0.001
 83823,-0.05301852,0.03143897,0.04058812,0.06638369,0.00339678,-0.03191
 921,0.09047550,0.07194223,0.02138575,-0.01880263,-0.01326541,-0.004391
 20,-0.01264301,-0.00706312,-0.00136343,-0.06560123,0.00748707,-0.00346
 200,0.00071339,-0.00126502,0.00118866,-0.00090027,-0.00005631,-0.00068
 176,0.00036121,-0.00075047,-0.00007387,-0.00097840,-0.00324235,0.02475
 114,0.02202126,0.02984352,-0.03721185,-0.03682570,0.06487800,0.0229727
 0,0.01146943,0.00135098,-0.00213188,-0.00042919,-0.01276472,-0.0083546
 2,-0.00323912,-0.07345283,0.01093195,0.00003271,-0.00104635,0.00008924
 ,-0.00026911,0.00048665,0.00020314,0.00006725,0.00013821,0.00009997,0.
 00000384,-0.00020631,-0.00032258,0.01861206,0.00986771,0.00111431,-0.0
 0605381,-0.02360887,-0.02774543,0.01367732,0.00769445,-0.01608492,-0.0
 0148572,-0.00112351,-0.00032113,-0.00962854,-0.00774036,-0.00390598,-0
 .02118453,0.01081865,0.04697081,0.00105520,-0.00104890,0.00065354,-0.0
 0051208,0.00050560,-0.00020321,-0.00000486,0.00018818,-0.00009982,-0.0
 0016067,0.00007558,-0.00018598,-0.00358653,0.00222486,0.00281214,0.008
 38967,0.00134673,-0.00267720,-0.03057736,-0.00014801,0.02465256,0.0047
 4745,0.01391492,-0.01775968,0.00172138,-0.00413622,0.00337982,-0.01139
 433,-0.01202786,0.00622854,0.03032212,0.00053855,-0.00047523,0.0003591
 7,-0.00010428,0.00027135,-0.00010796,-0.00003244,0.00008869,-0.0000469
 4,-0.00009202,0.00000197,-0.00008008,-0.00169560,0.00147569,0.00153166
 ,0.00445758,0.00066808,-0.00210189,0.00673598,-0.15803619,0.14939855,-
 0.00394172,-0.00842749,0.01513906,0.00112345,0.01130581,-0.01221746,-0
 .00609461,-0.00792849,0.00471973,-0.00089489,0.16105581,0.00048245,0.0
 0038983,-0.00008332,-0.00023534,-0.00005700,0.00000948,-0.00005710,-0.
 00001560,-0.00001634,-0.00010493,-0.00009019,0.00000603,-0.00087660,0.
 00059537,0.00110571,0.00303284,-0.00008174,-0.00026523,0.01574568,0.14
 195891,-0.22687131,0.00152799,-0.00113936,0.00235448,0.00139546,0.0180
 4489,-0.01422428,-0.00410975,-0.00301125,-0.00009742,-0.01680070,-0.15
 659385,0.23808220\\-0.00000014,0.00000057,0.00000007,0.00000024,0.0000
 0007,-0.00000005,0.,0.00000007,0.,0.00000004,-0.00000002,0.00000002,-0
 .00000087,0.00000030,0.00000086,0.00000091,-0.00000124,-0.00000078,-0.
 00000088,-0.00000032,0.00000019,0.00000011,0.00000005,-0.00000009,-0.0
 0000003,0.00000020,-0.00000002,0.00000075,0.00000028,-0.00000026,-0.00
 000014,0.00000005,0.00000005\\\@


 THE ONLY DIFFERENCE BETWEEN ECCENTRICS AND JOGGERS
 IS THAT JOGGERS WEAR SWEATBANDS WHEN THEY RUN IN THE RAIN.
 Job cpu time:       0 days  8 hours 20 minutes 18.4 seconds.
 Elapsed time:       0 days  0 hours 12 minutes 53.8 seconds.
 File lengths (MBytes):  RWF=  15742 Int=      0 D2E=      0 Chk=      8 Scr=      1
 Normal termination of Gaussian 16 at Wed Jun  5 14:43:17 2019.
