 Entering Gaussian System, Link 0=g16
 Initial command:
 /ichec/packages/gaussian/16b01/l1.exe "/localscratch/341085/Gau-40413.inp" -scrdir="/localscratch/341085/"
 Entering Link 1 = /ichec/packages/gaussian/16b01/l1.exe PID=     40849.
  
 Copyright (c) 1988-2017, Gaussian, Inc.  All Rights Reserved.
  
 This is part of the Gaussian(R) 16 program.  It is based on
 the Gaussian(R) 09 system (copyright 2009, Gaussian, Inc.),
 the Gaussian(R) 03 system (copyright 2003, Gaussian, Inc.),
 the Gaussian(R) 98 system (copyright 1998, Gaussian, Inc.),
 the Gaussian(R) 94 system (copyright 1995, Gaussian, Inc.),
 the Gaussian 92(TM) system (copyright 1992, Gaussian, Inc.),
 the Gaussian 90(TM) system (copyright 1990, Gaussian, Inc.),
 the Gaussian 88(TM) system (copyright 1988, Gaussian, Inc.),
 the Gaussian 86(TM) system (copyright 1986, Carnegie Mellon
 University), and the Gaussian 82(TM) system (copyright 1983,
 Carnegie Mellon University). Gaussian is a federally registered
 trademark of Gaussian, Inc.
  
 This software contains proprietary and confidential information,
 including trade secrets, belonging to Gaussian, Inc.
  
 This software is provided under written license and may be
 used, copied, transmitted, or stored only in accord with that
 written license.
  
 The following legend is applicable only to US Government
 contracts under FAR:
  
                    RESTRICTED RIGHTS LEGEND
  
 Use, reproduction and disclosure by the US Government is
 subject to restrictions as set forth in subparagraphs (a)
 and (c) of the Commercial Computer Software - Restricted
 Rights clause in FAR 52.227-19.
  
 Gaussian, Inc.
 340 Quinnipiac St., Bldg. 40, Wallingford CT 06492
  
  
 ---------------------------------------------------------------
 Warning -- This program may not be used in any manner that
 competes with the business of Gaussian, Inc. or will provide
 assistance to any competitor of Gaussian, Inc.  The licensee
 of this program is prohibited from giving any competitor of
 Gaussian, Inc. access to this program.  By using this program,
 the user acknowledges that Gaussian, Inc. is engaged in the
 business of creating and licensing software in the field of
 computational chemistry and represents and warrants to the
 licensee that it is not a competitor of Gaussian, Inc. and that
 it will not use this program in any manner prohibited above.
 ---------------------------------------------------------------
  

 Cite this work as:
 Gaussian 16, Revision B.01,
 M. J. Frisch, G. W. Trucks, H. B. Schlegel, G. E. Scuseria, 
 M. A. Robb, J. R. Cheeseman, G. Scalmani, V. Barone, 
 G. A. Petersson, H. Nakatsuji, X. Li, M. Caricato, A. V. Marenich, 
 J. Bloino, B. G. Janesko, R. Gomperts, B. Mennucci, H. P. Hratchian, 
 J. V. Ortiz, A. F. Izmaylov, J. L. Sonnenberg, D. Williams-Young, 
 F. Ding, F. Lipparini, F. Egidi, J. Goings, B. Peng, A. Petrone, 
 T. Henderson, D. Ranasinghe, V. G. Zakrzewski, J. Gao, N. Rega, 
 G. Zheng, W. Liang, M. Hada, M. Ehara, K. Toyota, R. Fukuda, 
 J. Hasegawa, M. Ishida, T. Nakajima, Y. Honda, O. Kitao, H. Nakai, 
 T. Vreven, K. Throssell, J. A. Montgomery, Jr., J. E. Peralta, 
 F. Ogliaro, M. J. Bearpark, J. J. Heyd, E. N. Brothers, K. N. Kudin, 
 V. N. Staroverov, T. A. Keith, R. Kobayashi, J. Normand, 
 K. Raghavachari, A. P. Rendell, J. C. Burant, S. S. Iyengar, 
 J. Tomasi, M. Cossi, J. M. Millam, M. Klene, C. Adamo, R. Cammi, 
 J. W. Ochterski, R. L. Martin, K. Morokuma, O. Farkas, 
 J. B. Foresman, and D. J. Fox, Gaussian, Inc., Wallingford CT, 2016.
 
 ******************************************
 Gaussian 16:  ES64L-G16RevB.01 20-Dec-2017
                 7-Jun-2019 
 ******************************************
 %mem=80GB
 %nproc=40
 Will use up to   40 processors via shared memory.
 ----------------------------------------------------------------------
 # opt=(calcfc,ts,noeigentest,maxcyc=500) freq=noraman uB2PLYPD3/cc-pvt
 z
 ----------------------------------------------------------------------
 1/5=1,6=500,10=4,11=1,18=20,38=1/1,3;
 2/9=110,12=2,17=6,18=5,40=1/2;
 3/5=16,6=1,11=2,25=1,30=1,71=2,74=-60,116=2,140=1/1,2,3;
 4//1;
 5/5=2,38=5/2;
 8/6=3,8=1,10=1,19=11,30=-1/1;
 9/15=3,16=-3/6;
 11/6=1,8=1,15=11,17=12,24=-1,27=1,28=-2,29=300,32=6,42=3/1,2,10;
 10/6=2,21=1/2;
 8/6=4,8=1,10=1,19=11,30=-1/11,4;
 10/5=1,20=4/2;
 11/12=2,14=11,16=1,17=2,28=-2,42=3,76=2/2,10,12;
 6/7=2,8=2,9=2,10=2/1;
 7/10=1,12=2,25=1,44=2/1,2,3,16;
 1/5=1,6=500,10=4,11=1,18=20/3(2);
 2/9=110/2;
 99//99;
 2/9=110/2;
 3/5=16,6=1,11=2,25=1,30=1,71=1,74=-60,116=2/1,2,3;
 4/5=5,16=3,69=1/1;
 5/5=2,38=5/2;
 8/6=4,10=1/1;
 9/15=2,16=-3/6;
 10/5=1/2;
 7/12=2/1,2,3,16;
 1/5=1,6=500,11=1,18=20/3(-8);
 2/9=110/2;
 6/7=2,8=2,9=2,10=2/1;
 99/9=10/99;
 -------------------
 Title Card Required
 -------------------
 Symbolic Z-matrix:
 Charge =  0 Multiplicity = 2
 C                     1.93873  -1.04791   0.44458 
 H                     1.34579  -1.13873   1.35571 
 H                     1.93863  -2.01185  -0.06201 
 C                     1.40998   0.04931  -0.43832 
 H                     1.88853   0.09754  -1.41557 
 C                    -1.99282  -0.20073   0.9052 
 H                    -1.08873  -0.43145   1.47427 
 H                    -2.58712   0.54007   1.43705 
 H                    -2.57111  -1.11154   0.75072 
 O                    -1.66019   0.38889  -0.3346 
 O                    -0.95408  -0.53691  -1.07661 
 H                     0.18747  -0.31472  -0.80521 
 H                     2.96876  -0.83096   0.74679 
 C                     1.20389   1.39277   0.20227 
 H                     0.69253   2.08294  -0.46664 
 H                     0.61327   1.30639   1.11582 
 H                     2.16753   1.83588   0.47637 
 
 Add virtual bond connecting atoms H12        and O11        Dist= 2.26D+00.
 Add virtual bond connecting atoms H12        and C4         Dist= 2.51D+00.

 GradGradGradGradGradGradGradGradGradGradGradGradGradGradGradGradGradGrad
 Berny optimization.
 Initialization pass.
                           ----------------------------
                           !    Initial Parameters    !
                           ! (Angstroms and Degrees)  !
 --------------------------                            --------------------------
 ! Name  Definition              Value          Derivative Info.                !
 --------------------------------------------------------------------------------
 ! R1    R(1,2)                  1.0909         calculate D2E/DX2 analytically  !
 ! R2    R(1,3)                  1.0889         calculate D2E/DX2 analytically  !
 ! R3    R(1,4)                  1.5043         calculate D2E/DX2 analytically  !
 ! R4    R(1,13)                 1.0952         calculate D2E/DX2 analytically  !
 ! R5    R(4,5)                  1.0892         calculate D2E/DX2 analytically  !
 ! R6    R(4,12)                 1.3273         calculate D2E/DX2 analytically  !
 ! R7    R(4,14)                 1.5026         calculate D2E/DX2 analytically  !
 ! R8    R(6,7)                  1.0929         calculate D2E/DX2 analytically  !
 ! R9    R(6,8)                  1.0885         calculate D2E/DX2 analytically  !
 ! R10   R(6,9)                  1.0899         calculate D2E/DX2 analytically  !
 ! R11   R(6,10)                 1.4126         calculate D2E/DX2 analytically  !
 ! R12   R(10,11)                1.3807         calculate D2E/DX2 analytically  !
 ! R13   R(11,12)                1.1942         calculate D2E/DX2 analytically  !
 ! R14   R(14,15)                1.0887         calculate D2E/DX2 analytically  !
 ! R15   R(14,16)                1.0913         calculate D2E/DX2 analytically  !
 ! R16   R(14,17)                1.0955         calculate D2E/DX2 analytically  !
 ! A1    A(2,1,3)              108.3499         calculate D2E/DX2 analytically  !
 ! A2    A(2,1,4)              111.0929         calculate D2E/DX2 analytically  !
 ! A3    A(2,1,13)             107.2921         calculate D2E/DX2 analytically  !
 ! A4    A(3,1,4)              111.8746         calculate D2E/DX2 analytically  !
 ! A5    A(3,1,13)             107.687          calculate D2E/DX2 analytically  !
 ! A6    A(4,1,13)             110.368          calculate D2E/DX2 analytically  !
 ! A7    A(1,4,5)              113.8574         calculate D2E/DX2 analytically  !
 ! A8    A(1,4,12)             106.6148         calculate D2E/DX2 analytically  !
 ! A9    A(1,4,14)             116.7523         calculate D2E/DX2 analytically  !
 ! A10   A(5,4,12)              99.719          calculate D2E/DX2 analytically  !
 ! A11   A(5,4,14)             113.7772         calculate D2E/DX2 analytically  !
 ! A12   A(12,4,14)            103.6935         calculate D2E/DX2 analytically  !
 ! A13   A(7,6,8)              109.933          calculate D2E/DX2 analytically  !
 ! A14   A(7,6,9)              109.6523         calculate D2E/DX2 analytically  !
 ! A15   A(7,6,10)             110.5071         calculate D2E/DX2 analytically  !
 ! A16   A(8,6,9)              110.3835         calculate D2E/DX2 analytically  !
 ! A17   A(8,6,10)             105.8626         calculate D2E/DX2 analytically  !
 ! A18   A(9,6,10)             110.4478         calculate D2E/DX2 analytically  !
 ! A19   A(6,10,11)            108.1934         calculate D2E/DX2 analytically  !
 ! A20   A(10,11,12)           104.003          calculate D2E/DX2 analytically  !
 ! A21   A(4,14,15)            111.6722         calculate D2E/DX2 analytically  !
 ! A22   A(4,14,16)            111.1226         calculate D2E/DX2 analytically  !
 ! A23   A(4,14,17)            110.345          calculate D2E/DX2 analytically  !
 ! A24   A(15,14,16)           108.0789         calculate D2E/DX2 analytically  !
 ! A25   A(15,14,17)           108.0878         calculate D2E/DX2 analytically  !
 ! A26   A(16,14,17)           107.376          calculate D2E/DX2 analytically  !
 ! A27   L(4,12,11,7,-1)       176.6923         calculate D2E/DX2 analytically  !
 ! A28   L(4,12,11,7,-2)       174.6792         calculate D2E/DX2 analytically  !
 ! D1    D(2,1,4,5)           -172.6848         calculate D2E/DX2 analytically  !
 ! D2    D(2,1,4,12)           -63.7437         calculate D2E/DX2 analytically  !
 ! D3    D(2,1,4,14)            51.5383         calculate D2E/DX2 analytically  !
 ! D4    D(3,1,4,5)            -51.4552         calculate D2E/DX2 analytically  !
 ! D5    D(3,1,4,12)            57.4859         calculate D2E/DX2 analytically  !
 ! D6    D(3,1,4,14)           172.7679         calculate D2E/DX2 analytically  !
 ! D7    D(13,1,4,5)            68.4309         calculate D2E/DX2 analytically  !
 ! D8    D(13,1,4,12)          177.372          calculate D2E/DX2 analytically  !
 ! D9    D(13,1,4,14)          -67.346          calculate D2E/DX2 analytically  !
 ! D10   D(1,4,11,10)          108.4337         calculate D2E/DX2 analytically  !
 ! D11   D(5,4,11,10)         -131.6755         calculate D2E/DX2 analytically  !
 ! D12   D(14,4,11,10)         -14.5114         calculate D2E/DX2 analytically  !
 ! D13   D(1,4,14,15)         -172.0427         calculate D2E/DX2 analytically  !
 ! D14   D(1,4,14,16)          -51.2788         calculate D2E/DX2 analytically  !
 ! D15   D(1,4,14,17)           67.7141         calculate D2E/DX2 analytically  !
 ! D16   D(5,4,14,15)           52.146          calculate D2E/DX2 analytically  !
 ! D17   D(5,4,14,16)          172.9099         calculate D2E/DX2 analytically  !
 ! D18   D(5,4,14,17)          -68.0972         calculate D2E/DX2 analytically  !
 ! D19   D(12,4,14,15)         -55.1447         calculate D2E/DX2 analytically  !
 ! D20   D(12,4,14,16)          65.6192         calculate D2E/DX2 analytically  !
 ! D21   D(12,4,14,17)        -175.3879         calculate D2E/DX2 analytically  !
 ! D22   D(7,6,10,11)           63.705          calculate D2E/DX2 analytically  !
 ! D23   D(8,6,10,11)         -177.3037         calculate D2E/DX2 analytically  !
 ! D24   D(9,6,10,11)          -57.8063         calculate D2E/DX2 analytically  !
 ! D25   D(6,10,11,12)         -91.7244         calculate D2E/DX2 analytically  !
 --------------------------------------------------------------------------------
 Trust Radius=3.00D-01 FncErr=1.00D-07 GrdErr=1.00D-07 EigMax=2.50D+02 EigMin=1.00D-04
 Number of steps in this run=    102 maximum allowed number of steps=    102.
 Search for a saddle point of order  1.
 GradGradGradGradGradGradGradGradGradGradGradGradGradGradGradGradGradGrad

                          Input orientation:                          
 ---------------------------------------------------------------------
 Center     Atomic      Atomic             Coordinates (Angstroms)
 Number     Number       Type             X           Y           Z
 ---------------------------------------------------------------------
      1          6           0        1.938728   -1.047911    0.444583
      2          1           0        1.345786   -1.138726    1.355708
      3          1           0        1.938634   -2.011847   -0.062006
      4          6           0        1.409982    0.049306   -0.438323
      5          1           0        1.888526    0.097538   -1.415568
      6          6           0       -1.992820   -0.200732    0.905203
      7          1           0       -1.088731   -0.431454    1.474265
      8          1           0       -2.587124    0.540066    1.437047
      9          1           0       -2.571113   -1.111542    0.750716
     10          8           0       -1.660192    0.388888   -0.334603
     11          8           0       -0.954081   -0.536911   -1.076605
     12          1           0        0.187466   -0.314715   -0.805206
     13          1           0        2.968763   -0.830956    0.746789
     14          6           0        1.203885    1.392770    0.202267
     15          1           0        0.692534    2.082942   -0.466644
     16          1           0        0.613268    1.306394    1.115816
     17          1           0        2.167528    1.835880    0.476367
 ---------------------------------------------------------------------
                    Distance matrix (angstroms):
                    1          2          3          4          5
     1  C    0.000000
     2  H    1.090860   0.000000
     3  H    1.088947   1.767405   0.000000
     4  C    1.504321   2.152693   2.160889   0.000000
     5  H    2.185117   3.082675   2.506820   1.089192   0.000000
     6  C    4.048080   3.497010   4.435308   3.666966   4.532084
     7  H    3.256650   2.537945   3.744691   3.183189   4.182706
     8  H    4.897958   4.277001   5.407579   4.442377   5.325851
     9  H    4.520667   3.963439   4.669998   4.313989   5.103238
    10  O    3.952689   3.771824   4.334673   3.090638   3.721125
    11  O    3.308093   3.401135   3.401859   2.517906   2.932207
    12  H    2.272986   2.586552   2.549351   1.327275   1.853672
    13  H    1.095158   1.760556   1.763468   2.146893   2.589363
    14  C    2.560397   2.785504   3.493009   1.502573   2.182602
    15  H    3.490784   3.758570   4.299278   2.156666   2.504532
    16  H    2.783909   2.563736   3.762258   2.151830   3.081480
    17  H    2.893028   3.208860   3.891946   2.145316   2.584394
                    6          7          8          9         10
     6  C    0.000000
     7  H    1.092905   0.000000
     8  H    1.088502   1.786174   0.000000
     9  H    1.089892   1.784236   1.788607   0.000000
    10  O    1.412591   2.066769   2.005194   2.063731   0.000000
    11  O    2.262644   2.556597   3.185146   2.506810   1.380675
    12  H    2.773470   2.615013   3.668337   3.265821   2.032330
    13  H    5.003957   4.141507   5.764030   5.546978   4.907612
    14  C    3.640370   3.194035   4.077197   4.563221   3.082036
    15  H    3.782626   3.641733   4.093979   4.726318   2.902167
    16  H    3.017860   2.458740   3.306502   4.014971   2.848535
    17  H    4.651901   4.091433   5.020832   5.587243   4.171678
                   11         12         13         14         15
    11  O    0.000000
    12  H    1.194219   0.000000
    13  H    4.335889   3.226578   0.000000
    14  C    3.164806   2.227917   2.890719   0.000000
    15  H    3.153890   2.473556   3.891586   1.088696   0.000000
    16  H    3.265129   2.549437   3.202000   1.091266   1.764508
    17  H    4.217381   3.191886   2.797699   1.095484   1.768026
                   16         17
    16  H    0.000000
    17  H    1.762094   0.000000
 Stoichiometry    C4H11O2(2)
 Framework group  C1[X(C4H11O2)]
 Deg. of freedom    45
 Full point group                 C1      NOp   1
 Largest Abelian subgroup         C1      NOp   1
 Largest concise Abelian subgroup C1      NOp   1
                         Standard orientation:                         
 ---------------------------------------------------------------------
 Center     Atomic      Atomic             Coordinates (Angstroms)
 Number     Number       Type             X           Y           Z
 ---------------------------------------------------------------------
      1          6           0        1.938728   -1.047911    0.444583
      2          1           0        1.345786   -1.138726    1.355708
      3          1           0        1.938634   -2.011847   -0.062006
      4          6           0        1.409982    0.049306   -0.438323
      5          1           0        1.888526    0.097538   -1.415568
      6          6           0       -1.992820   -0.200732    0.905203
      7          1           0       -1.088731   -0.431454    1.474265
      8          1           0       -2.587124    0.540066    1.437047
      9          1           0       -2.571113   -1.111542    0.750716
     10          8           0       -1.660192    0.388888   -0.334603
     11          8           0       -0.954081   -0.536911   -1.076605
     12          1           0        0.187466   -0.314715   -0.805206
     13          1           0        2.968763   -0.830956    0.746789
     14          6           0        1.203885    1.392770    0.202267
     15          1           0        0.692534    2.082942   -0.466644
     16          1           0        0.613268    1.306394    1.115816
     17          1           0        2.167528    1.835880    0.476367
 ---------------------------------------------------------------------
 Rotational constants (GHZ):           4.6779789           1.8226386           1.7291778
 Standard basis: CC-pVTZ (5D, 7F)
 There are   375 symmetry adapted cartesian basis functions of A   symmetry.
 There are   334 symmetry adapted basis functions of A   symmetry.
   334 basis functions,   499 primitive gaussians,   375 cartesian basis functions
    26 alpha electrons       25 beta electrons
       nuclear repulsion energy       259.6522510301 Hartrees.
 NAtoms=   17 NActive=   17 NUniq=   17 SFac= 1.00D+00 NAtFMM=   60 NAOKFM=F Big=F
 Integral buffers will be    131072 words long.
 Raffenetti 2 integral format.
 Two-electron integral symmetry is turned on.
 Nuclear repulsion after empirical dispersion term =      259.6437608284 Hartrees.
 One-electron integrals computed using PRISM.
 NBasis=   334 RedAO= T EigKep=  7.67D-04  NBF=   334
 NBsUse=   334 1.00D-06 EigRej= -1.00D+00 NBFU=   334
 ExpMin= 1.03D-01 ExpMax= 1.53D+04 ExpMxC= 5.22D+02 IAcc=3 IRadAn=         5 AccDes= 0.00D+00
 Harris functional with IExCor=  419 and IRadAn=       5 diagonalized for initial guess.
 HarFok:  IExCor=  419 AccDes= 0.00D+00 IRadAn=         5 IDoV= 1 UseB2=F ITyADJ=14
 ICtDFT=  3500011 ScaDFX=  1.000000  1.000000  1.000000  1.000000
 FoFCou: FMM=F IPFlag=           0 FMFlag=      100000 FMFlg1=           0
         NFxFlg=           0 DoJE=T BraDBF=F KetDBF=T FulRan=T
         wScrn=  0.000000 ICntrl=       500 IOpCl=  0 I1Cent=   200000004 NGrid=           0
         NMat0=    1 NMatS0=      1 NMatT0=    0 NMatD0=    1 NMtDS0=    0 NMtDT0=    0
 Petite list used in FoFCou.
 Initial guess <Sx>= 0.0000 <Sy>= 0.0000 <Sz>= 0.5000 <S**2>= 0.7500 S= 0.5000
 Requested convergence on RMS density matrix=1.00D-08 within 128 cycles.
 Requested convergence on MAX density matrix=1.00D-06.
 Requested convergence on             energy=1.00D-06.
 No special actions if energy rises.
 Integral accuracy reduced to 1.0D-05 until final iterations.
 Initial convergence to 1.0D-05 achieved.  Increase integral accuracy.
 SCF Done:  E(UB2PLYPD3) =  -308.795038409     A.U. after   19 cycles
            NFock= 19  Conv=0.28D-08     -V/T= 2.0042
 <Sx>= 0.0000 <Sy>= 0.0000 <Sz>= 0.5000 <S**2>= 0.7683 S= 0.5091
 <L.S>=  0.00000000000    
 Annihilation of the first spin contaminant:
 S**2 before annihilation     0.7683,   after     0.7501
 DoSCS=T DFT=T ScalE2(SS,OS)=  0.270000  0.270000
 ExpMin= 1.03D-01 ExpMax= 1.53D+04 ExpMxC= 5.22D+02 IAcc=3 IRadAn=         5 AccDes= 0.00D+00
 HarFok:  IExCor=  205 AccDes= 0.00D+00 IRadAn=         5 IDoV=-2 UseB2=F ITyADJ=14
 ICtDFT= 12500011 ScaDFX=  1.000000  1.000000  1.000000  1.000000
 Range of M.O.s used for correlation:     7   334
 NBasis=   334 NAE=    26 NBE=    25 NFC=     6 NFV=     0
 NROrb=    328 NOA=    20 NOB=    19 NVA=   308 NVB=   309

 **** Warning!!: The largest alpha MO coefficient is  0.12098383D+02


 **** Warning!!: The largest beta MO coefficient is  0.12096029D+02

 DoSCS=T DFT=T ScalE2(SS,OS)=  0.270000  0.270000
 Disk-based method using ON**2 memory for 20 occupieds at a time.
 Permanent disk used for amplitudes=    91502950 words.
 Estimated scratch disk usage=  1861737858 words.
 Actual    scratch disk usage=  1800515970 words.
 JobTyp=2 Pass  1:  I=   7 to  26 NPSUse= 40 ParTrn=T ParDer=T DoDerP=T.
 (rs|ai) integrals will be sorted in core.
 Actual    scratch disk usage=  1800515970 words.
 JobTyp=3 Pass  1:  I=   7 to  25 NPSUse= 40 ParTrn=T ParDer=T DoDerP=T.
 (rs|ai) integrals will be sorted in core.
 Spin components of T(2) and E(2):
     alpha-alpha T2 =       0.6370238134D-01 E2=     -0.4716906782D-01
     alpha-beta  T2 =       0.3946598459D+00 E2=     -0.2991026596D+00
     beta-beta   T2 =       0.6998365215D-01 E2=     -0.4630723121D-01
 (S**2,0)=  0.76832D+00           (S**2,1)=  0.74249D+00
 Scaling Projection term by:   0.270000
 E(PUHF)=      -0.30880131279D+03        E(PMP2)=      -0.30918812293D+03
 E2(B2PLYPD3) =    -0.3925789587D+00 E(B2PLYPD3) =    -0.30918761736800D+03
 G2DrvN: will do    18 centers at a time, making    1 passes.
 Calling FoFCou, ICntrl=  3107 FMM=F I1Cent=   0 AccDes= 0.00D+00.
 End of G2Drv F.D. properties file   721 does not exist.
 End of G2Drv F.D. properties file   722 does not exist.
 End of G2Drv F.D. properties file   788 does not exist.
          IDoAtm=11111111111111111
          Differentiating once with respect to electric field.
                with respect to dipole field.
          Differentiating once with respect to nuclear coordinates.
 Keep R1 and R2 ints in memory in canonical form, NReq=3176104334.
          There are    54 degrees of freedom in the 1st order CPHF.  IDoFFX=6 NUNeed=    54.
     51 vectors produced by pass  0 Test12= 2.91D-14 1.85D-09 XBig12= 8.22D+01 5.75D+00.
 AX will form    51 AO Fock derivatives at one time.
     51 vectors produced by pass  1 Test12= 2.91D-14 1.85D-09 XBig12= 6.50D+00 3.15D-01.
     51 vectors produced by pass  2 Test12= 2.91D-14 1.85D-09 XBig12= 3.92D-01 1.41D-01.
     51 vectors produced by pass  3 Test12= 2.91D-14 1.85D-09 XBig12= 5.46D-03 7.11D-03.
     51 vectors produced by pass  4 Test12= 2.91D-14 1.85D-09 XBig12= 5.69D-05 7.41D-04.
     51 vectors produced by pass  5 Test12= 2.91D-14 1.85D-09 XBig12= 6.25D-07 9.41D-05.
     51 vectors produced by pass  6 Test12= 2.91D-14 1.85D-09 XBig12= 5.07D-09 6.78D-06.
     20 vectors produced by pass  7 Test12= 2.91D-14 1.85D-09 XBig12= 3.10D-11 4.70D-07.
      3 vectors produced by pass  8 Test12= 2.91D-14 1.85D-09 XBig12= 1.93D-13 4.15D-08.
      2 vectors produced by pass  9 Test12= 2.91D-14 1.85D-09 XBig12= 1.42D-15 2.75D-09.
 InvSVY:  IOpt=1 It=  1 EMax= 2.47D-15
 Solved reduced A of dimension   382 with    54 vectors.
 End of Minotr F.D. properties file   721 does not exist.
 End of Minotr F.D. properties file   722 does not exist.
 End of Minotr F.D. properties file   788 does not exist.
 MDV= 10737418240.
 DoSCS=T DFT=T ScalE2(SS,OS)=  0.270000  0.270000
 Form MO integral derivatives with frozen-active canonical formalism.
 Discarding MO integrals.
 Reordered first order wavefunction length =    368623478
 In DefCFB: NBatch=  1 ICI= 26 ICA=309 LFMax= 78
            Large arrays: LIAPS=  7882233000 LIARS=  1476247500 words.
 In DefCFB: NBatch=  1 ICI= 26 ICA=309 LFMax= 78
            Large arrays: LIAPS=  7882233000 LIARS=  1476247500 words.
 Semi-Direct transformation.
 ModeAB=           4 MOrb=            26 LenV=   10734108343
 LASXX=    460751213 LTotXX=   460751213 LenRXX=   928395468
 LTotAB=   467644255 MaxLAS=   578970964 LenRXY=           0
 NonZer=  1389146681 LenScr=  2091891712 LnRSAI=   578970964
 LnScr1=   871862272 LExtra=           0 Total=   4471120416
 MaxDsk=          -1 SrtSym=           T ITran=            4
 JobTyp=1 Pass  1:  I=   1 to  26.
 (rs|ai) integrals will be sorted in core.
 ModeAB=           4 MOrb=            25 LenV=   10734108343
 LASXX=    443915925 LTotXX=   443915925 LenRXX=   826983225
 LTotAB=   383067300 MaxLAS=   556702850 LenRXY=           0
 NonZer=  1270899150 LenScr=  1913825280 LnRSAI=   556702850
 LnScr1=   838329344 LExtra=           0 Total=   4135840699
 MaxDsk=          -1 SrtSym=           T ITran=            4
 JobTyp=2 Pass  1:  I=   1 to  25.
 (rs|ai) integrals will be sorted in core.
 SymMOI:  orbitals are not symmetric.
 DoSCS=T DFT=T ScalE2(SS,OS)=  0.270000  0.270000
 Spin components of T(2) and E(2):
     alpha-alpha T2 =       0.6370238134D-01 E2=     -0.4716906782D-01
     alpha-beta  T2 =       0.3946598459D+00 E2=     -0.2991026596D+00
     beta-beta   T2 =       0.6998365215D-01 E2=     -0.4630723121D-01
 E2(B2PLYPD3) =    -0.3925789587D+00 E(B2PLYPD3) =    -0.30918761736800D+03
 (S**2,0)=  0.76832D+00           (S**2,1)=  0.74249D+00
 Scaling Projection term by:   0.270000
 E(PUHF)=      -0.30880131279D+03        E(PMP2)=      -0.30918812293D+03
          IDoAtm=11111111111111111
          Differentiating once with respect to electric field.
                with respect to dipole field.
          Differentiating once with respect to nuclear coordinates.
 Keep R1 and R2 ints in memory in canonical form, NReq=3176239665.
          There are     1 degrees of freedom in the 1st order CPHF.  IDoFFX=0 NUNeed=     1.
 LinEq1:  Iter=  0 NonCon=     1 RMS=8.66D-04 Max=5.86D-02 NDo=     1
 AX will form     1 AO Fock derivatives at one time.
 LinEq1:  Iter=  1 NonCon=     1 RMS=2.89D-04 Max=9.10D-03 NDo=     1
 LinEq1:  Iter=  2 NonCon=     1 RMS=1.64D-04 Max=8.22D-03 NDo=     1
 LinEq1:  Iter=  3 NonCon=     1 RMS=6.64D-05 Max=1.06D-03 NDo=     1
 LinEq1:  Iter=  4 NonCon=     1 RMS=3.45D-05 Max=6.86D-04 NDo=     1
 LinEq1:  Iter=  5 NonCon=     1 RMS=2.40D-05 Max=8.05D-04 NDo=     1
 LinEq1:  Iter=  6 NonCon=     1 RMS=1.43D-05 Max=3.57D-04 NDo=     1
 LinEq1:  Iter=  7 NonCon=     1 RMS=5.01D-06 Max=8.33D-05 NDo=     1
 LinEq1:  Iter=  8 NonCon=     1 RMS=1.97D-06 Max=2.75D-05 NDo=     1
 LinEq1:  Iter=  9 NonCon=     1 RMS=8.86D-07 Max=1.64D-05 NDo=     1
 LinEq1:  Iter= 10 NonCon=     1 RMS=3.47D-07 Max=9.43D-06 NDo=     1
 LinEq1:  Iter= 11 NonCon=     1 RMS=1.30D-07 Max=4.13D-06 NDo=     1
 LinEq1:  Iter= 12 NonCon=     1 RMS=4.36D-08 Max=1.71D-06 NDo=     1
 LinEq1:  Iter= 13 NonCon=     1 RMS=2.03D-08 Max=9.08D-07 NDo=     1
 LinEq1:  Iter= 14 NonCon=     1 RMS=8.32D-09 Max=4.66D-07 NDo=     1
 LinEq1:  Iter= 15 NonCon=     1 RMS=2.49D-09 Max=1.22D-07 NDo=     1
 LinEq1:  Iter= 16 NonCon=     1 RMS=8.05D-10 Max=2.91D-08 NDo=     1
 LinEq1:  Iter= 17 NonCon=     1 RMS=2.37D-10 Max=5.93D-09 NDo=     1
 LinEq1:  Iter= 18 NonCon=     1 RMS=9.00D-11 Max=2.10D-09 NDo=     1
 LinEq1:  Iter= 19 NonCon=     1 RMS=4.28D-11 Max=1.10D-09 NDo=     1
 LinEq1:  Iter= 20 NonCon=     0 RMS=1.42D-11 Max=3.24D-10 NDo=     1
 Linear equations converged to 1.000D-10 1.000D-09 after    20 iterations.
 End of Minotr F.D. properties file   721 does not exist.
 End of Minotr F.D. properties file   722 does not exist.
 End of Minotr F.D. properties file   788 does not exist.
 Symmetrizing basis deriv contribution to polar:
 IMax=3 JMax=2 DiffMx= 0.00D+00
 G2DrvN: will do    18 centers at a time, making    1 passes.
 Calling FoFCou, ICntrl=  3107 FMM=F I1Cent=   0 AccDes= 0.00D+00.
 End of G2Drv F.D. properties file   721 does not exist.
 End of G2Drv F.D. properties file   722 does not exist.
 End of G2Drv F.D. properties file   788 does not exist.
 DoSCS=T DFT=T ScalE2(SS,OS)=  0.270000  0.270000
 R2 and R3 integrals will be kept in memory, NReq=  4996899000.
 DD1Dir will call FoFMem   1 times, MxPair=      1926
 NAB=   650 NAA=   325 NBB=   300.
 Discarding MO integrals.

 **********************************************************************

            Population analysis using the SCF Density.

 **********************************************************************

 Orbital symmetries:
 Alpha Orbitals:
       Occupied  (A) (A) (A) (A) (A) (A) (A) (A) (A) (A) (A) (A)
                 (A) (A) (A) (A) (A) (A) (A) (A) (A) (A) (A) (A)
                 (A) (A)
       Virtual   (A) (A) (A) (A) (A) (A) (A) (A) (A) (A) (A) (A)
                 (A) (A) (A) (A) (A) (A) (A) (A) (A) (A) (A) (A)
                 (A) (A) (A) (A) (A) (A) (A) (A) (A) (A) (A) (A)
                 (A) (A) (A) (A) (A) (A) (A) (A) (A) (A) (A) (A)
                 (A) (A) (A) (A) (A) (A) (A) (A) (A) (A) (A) (A)
                 (A) (A) (A) (A) (A) (A) (A) (A) (A) (A) (A) (A)
                 (A) (A) (A) (A) (A) (A) (A) (A) (A) (A) (A) (A)
                 (A) (A) (A) (A) (A) (A) (A) (A) (A) (A) (A) (A)
                 (A) (A) (A) (A) (A) (A) (A) (A) (A) (A) (A) (A)
                 (A) (A) (A) (A) (A) (A) (A) (A) (A) (A) (A) (A)
                 (A) (A) (A) (A) (A) (A) (A) (A) (A) (A) (A) (A)
                 (A) (A) (A) (A) (A) (A) (A) (A) (A) (A) (A) (A)
                 (A) (A) (A) (A) (A) (A) (A) (A) (A) (A) (A) (A)
                 (A) (A) (A) (A) (A) (A) (A) (A) (A) (A) (A) (A)
                 (A) (A) (A) (A) (A) (A) (A) (A) (A) (A) (A) (A)
                 (A) (A) (A) (A) (A) (A) (A) (A) (A) (A) (A) (A)
                 (A) (A) (A) (A) (A) (A) (A) (A) (A) (A) (A) (A)
                 (A) (A) (A) (A) (A) (A) (A) (A) (A) (A) (A) (A)
                 (A) (A) (A) (A) (A) (A) (A) (A) (A) (A) (A) (A)
                 (A) (A) (A) (A) (A) (A) (A) (A) (A) (A) (A) (A)
                 (A) (A) (A) (A) (A) (A) (A) (A) (A) (A) (A) (A)
                 (A) (A) (A) (A) (A) (A) (A) (A) (A) (A) (A) (A)
                 (A) (A) (A) (A) (A) (A) (A) (A) (A) (A) (A) (A)
                 (A) (A) (A) (A) (A) (A) (A) (A) (A) (A) (A) (A)
                 (A) (A) (A) (A) (A) (A) (A) (A) (A) (A) (A) (A)
                 (A) (A) (A) (A) (A) (A) (A) (A)
 Beta  Orbitals:
       Occupied  (A) (A) (A) (A) (A) (A) (A) (A) (A) (A) (A) (A)
                 (A) (A) (A) (A) (A) (A) (A) (A) (A) (A) (A) (A)
                 (A)
       Virtual   (A) (A) (A) (A) (A) (A) (A) (A) (A) (A) (A) (A)
                 (A) (A) (A) (A) (A) (A) (A) (A) (A) (A) (A) (A)
                 (A) (A) (A) (A) (A) (A) (A) (A) (A) (A) (A) (A)
                 (A) (A) (A) (A) (A) (A) (A) (A) (A) (A) (A) (A)
                 (A) (A) (A) (A) (A) (A) (A) (A) (A) (A) (A) (A)
                 (A) (A) (A) (A) (A) (A) (A) (A) (A) (A) (A) (A)
                 (A) (A) (A) (A) (A) (A) (A) (A) (A) (A) (A) (A)
                 (A) (A) (A) (A) (A) (A) (A) (A) (A) (A) (A) (A)
                 (A) (A) (A) (A) (A) (A) (A) (A) (A) (A) (A) (A)
                 (A) (A) (A) (A) (A) (A) (A) (A) (A) (A) (A) (A)
                 (A) (A) (A) (A) (A) (A) (A) (A) (A) (A) (A) (A)
                 (A) (A) (A) (A) (A) (A) (A) (A) (A) (A) (A) (A)
                 (A) (A) (A) (A) (A) (A) (A) (A) (A) (A) (A) (A)
                 (A) (A) (A) (A) (A) (A) (A) (A) (A) (A) (A) (A)
                 (A) (A) (A) (A) (A) (A) (A) (A) (A) (A) (A) (A)
                 (A) (A) (A) (A) (A) (A) (A) (A) (A) (A) (A) (A)
                 (A) (A) (A) (A) (A) (A) (A) (A) (A) (A) (A) (A)
                 (A) (A) (A) (A) (A) (A) (A) (A) (A) (A) (A) (A)
                 (A) (A) (A) (A) (A) (A) (A) (A) (A) (A) (A) (A)
                 (A) (A) (A) (A) (A) (A) (A) (A) (A) (A) (A) (A)
                 (A) (A) (A) (A) (A) (A) (A) (A) (A) (A) (A) (A)
                 (A) (A) (A) (A) (A) (A) (A) (A) (A) (A) (A) (A)
                 (A) (A) (A) (A) (A) (A) (A) (A) (A) (A) (A) (A)
                 (A) (A) (A) (A) (A) (A) (A) (A) (A) (A) (A) (A)
                 (A) (A) (A) (A) (A) (A) (A) (A) (A) (A) (A) (A)
                 (A) (A) (A) (A) (A) (A) (A) (A) (A)
 The electronic state is 2-A.
 Alpha  occ. eigenvalues --  -19.78607 -19.78253 -10.66017 -10.63760 -10.61380
 Alpha  occ. eigenvalues --  -10.60968  -1.28797  -1.01628  -0.91882  -0.80303
 Alpha  occ. eigenvalues --   -0.77663  -0.69210  -0.61180  -0.56321  -0.55100
 Alpha  occ. eigenvalues --   -0.53199  -0.51785  -0.48607  -0.47958  -0.46080
 Alpha  occ. eigenvalues --   -0.44315  -0.42096  -0.41684  -0.36492  -0.36188
 Alpha  occ. eigenvalues --   -0.28838
 Alpha virt. eigenvalues --    0.07304   0.09700   0.10944   0.12134   0.14172
 Alpha virt. eigenvalues --    0.14358   0.15002   0.15775   0.17320   0.18057
 Alpha virt. eigenvalues --    0.19320   0.21437   0.22807   0.27131   0.27914
 Alpha virt. eigenvalues --    0.29348   0.31268   0.32190   0.33690   0.34140
 Alpha virt. eigenvalues --    0.37579   0.38886   0.41629   0.43966   0.45883
 Alpha virt. eigenvalues --    0.46473   0.49499   0.50826   0.51169   0.52203
 Alpha virt. eigenvalues --    0.53163   0.53413   0.53609   0.54583   0.54787
 Alpha virt. eigenvalues --    0.56350   0.57677   0.58359   0.58760   0.59823
 Alpha virt. eigenvalues --    0.64078   0.66676   0.67752   0.68740   0.71835
 Alpha virt. eigenvalues --    0.73138   0.76636   0.77558   0.80400   0.83296
 Alpha virt. eigenvalues --    0.85475   0.87277   0.90211   0.93934   0.94329
 Alpha virt. eigenvalues --    0.95172   0.96495   1.00254   1.00931   1.01874
 Alpha virt. eigenvalues --    1.04619   1.05560   1.07720   1.08572   1.09531
 Alpha virt. eigenvalues --    1.11873   1.12788   1.15159   1.16115   1.17282
 Alpha virt. eigenvalues --    1.19013   1.19605   1.20163   1.23854   1.24034
 Alpha virt. eigenvalues --    1.24724   1.27200   1.29005   1.30550   1.32093
 Alpha virt. eigenvalues --    1.33529   1.35839   1.36511   1.38843   1.39198
 Alpha virt. eigenvalues --    1.40886   1.42052   1.43001   1.44029   1.46229
 Alpha virt. eigenvalues --    1.49316   1.50417   1.52149   1.55455   1.57330
 Alpha virt. eigenvalues --    1.59819   1.61146   1.61332   1.64005   1.70231
 Alpha virt. eigenvalues --    1.72862   1.74410   1.77988   1.81237   1.90237
 Alpha virt. eigenvalues --    1.95676   2.03814   2.05140   2.13903   2.19678
 Alpha virt. eigenvalues --    2.23131   2.30300   2.30867   2.36384   2.37526
 Alpha virt. eigenvalues --    2.42082   2.43530   2.45159   2.49012   2.49389
 Alpha virt. eigenvalues --    2.52128   2.56472   2.58870   2.62247   2.62872
 Alpha virt. eigenvalues --    2.68400   2.71271   2.71878   2.74185   2.77033
 Alpha virt. eigenvalues --    2.78042   2.80546   2.83353   2.87100   2.88789
 Alpha virt. eigenvalues --    2.90163   2.92432   2.92690   2.92993   2.94426
 Alpha virt. eigenvalues --    2.95751   3.00051   3.01623   3.03688   3.04326
 Alpha virt. eigenvalues --    3.05081   3.06517   3.10583   3.12375   3.12907
 Alpha virt. eigenvalues --    3.13762   3.15033   3.16197   3.18684   3.18907
 Alpha virt. eigenvalues --    3.20330   3.21773   3.22237   3.24124   3.24913
 Alpha virt. eigenvalues --    3.25964   3.28996   3.30218   3.38225   3.41143
 Alpha virt. eigenvalues --    3.42052   3.42650   3.44300   3.45508   3.46618
 Alpha virt. eigenvalues --    3.47826   3.51307   3.52437   3.53865   3.54382
 Alpha virt. eigenvalues --    3.55525   3.56352   3.58408   3.60143   3.60633
 Alpha virt. eigenvalues --    3.62209   3.63256   3.65818   3.68694   3.70930
 Alpha virt. eigenvalues --    3.71856   3.78546   3.80438   3.83641   3.84256
 Alpha virt. eigenvalues --    3.88618   3.89413   3.90486   3.91779   3.92638
 Alpha virt. eigenvalues --    3.93609   3.95191   3.96862   3.97570   3.98813
 Alpha virt. eigenvalues --    4.00655   4.01295   4.03832   4.04795   4.09882
 Alpha virt. eigenvalues --    4.10381   4.11029   4.13629   4.14347   4.15262
 Alpha virt. eigenvalues --    4.18521   4.19803   4.23321   4.24531   4.25290
 Alpha virt. eigenvalues --    4.25796   4.27107   4.28760   4.32353   4.33574
 Alpha virt. eigenvalues --    4.35170   4.37127   4.40559   4.41774   4.43029
 Alpha virt. eigenvalues --    4.44032   4.45872   4.48559   4.50166   4.51373
 Alpha virt. eigenvalues --    4.55725   4.63482   4.65886   4.66863   4.67346
 Alpha virt. eigenvalues --    4.72428   4.74180   4.80345   4.82811   4.87607
 Alpha virt. eigenvalues --    4.93443   4.95093   4.96682   4.98325   4.99984
 Alpha virt. eigenvalues --    5.01003   5.01506   5.04387   5.06119   5.08401
 Alpha virt. eigenvalues --    5.11299   5.14799   5.17770   5.24762   5.27187
 Alpha virt. eigenvalues --    5.28412   5.29658   5.30723   5.32388   5.34703
 Alpha virt. eigenvalues --    5.35941   5.38792   5.40176   5.41294   5.42693
 Alpha virt. eigenvalues --    5.47119   5.48087   5.51267   5.52072   5.53293
 Alpha virt. eigenvalues --    5.53997   5.57503   5.60617   5.67973   5.69682
 Alpha virt. eigenvalues --    5.70652   5.82345   5.94603   5.97649   5.99367
 Alpha virt. eigenvalues --    6.03275   6.04202   6.07075   6.08545   6.09636
 Alpha virt. eigenvalues --    6.12411   6.28926   6.32129   6.42671   6.45557
 Alpha virt. eigenvalues --    6.69142   6.75940   6.76891   6.84500   6.98431
 Alpha virt. eigenvalues --    7.07756   7.08849   7.20933   7.45414   7.46877
 Alpha virt. eigenvalues --    7.62514   7.74517   9.98023  10.85823  11.87847
 Alpha virt. eigenvalues --   13.49740  13.82105  13.93289
  Beta  occ. eigenvalues --  -19.78405 -19.76505 -10.66030 -10.62589 -10.61431
  Beta  occ. eigenvalues --  -10.61021  -1.26757  -0.98533  -0.90065  -0.80118
  Beta  occ. eigenvalues --   -0.77157  -0.66740  -0.57869  -0.55211  -0.54715
  Beta  occ. eigenvalues --   -0.52581  -0.50092  -0.47863  -0.45628  -0.44481
  Beta  occ. eigenvalues --   -0.43287  -0.41767  -0.41255  -0.34857  -0.32751
  Beta virt. eigenvalues --   -0.03715   0.07385   0.09812   0.11064   0.12324
  Beta virt. eigenvalues --    0.14366   0.14632   0.15386   0.15927   0.17370
  Beta virt. eigenvalues --    0.18189   0.19919   0.21852   0.23169   0.27327
  Beta virt. eigenvalues --    0.28251   0.29519   0.31857   0.32623   0.33953
  Beta virt. eigenvalues --    0.35128   0.37833   0.39246   0.42494   0.44337
  Beta virt. eigenvalues --    0.45987   0.47259   0.49877   0.50899   0.51411
  Beta virt. eigenvalues --    0.52666   0.53351   0.53526   0.53936   0.55027
  Beta virt. eigenvalues --    0.56107   0.57387   0.58654   0.58894   0.59684
  Beta virt. eigenvalues --    0.60172   0.64626   0.67007   0.68028   0.68988
  Beta virt. eigenvalues --    0.71955   0.73992   0.76843   0.77998   0.80818
  Beta virt. eigenvalues --    0.83637   0.85709   0.87568   0.90497   0.94186
  Beta virt. eigenvalues --    0.94544   0.95284   0.96785   1.00460   1.01170
  Beta virt. eigenvalues --    1.02233   1.04746   1.05752   1.08085   1.09165
  Beta virt. eigenvalues --    1.09794   1.11973   1.13071   1.15356   1.16424
  Beta virt. eigenvalues --    1.17748   1.19251   1.19801   1.20427   1.24110
  Beta virt. eigenvalues --    1.24475   1.24944   1.27594   1.29285   1.31524
  Beta virt. eigenvalues --    1.32286   1.33955   1.36164   1.36714   1.39125
  Beta virt. eigenvalues --    1.39319   1.41012   1.42162   1.43274   1.44367
  Beta virt. eigenvalues --    1.46758   1.49600   1.50647   1.52718   1.55768
  Beta virt. eigenvalues --    1.57670   1.60114   1.61437   1.61920   1.64394
  Beta virt. eigenvalues --    1.70879   1.73322   1.74959   1.79021   1.81575
  Beta virt. eigenvalues --    1.92211   1.96744   2.04596   2.06041   2.14213
  Beta virt. eigenvalues --    2.21682   2.23498   2.30696   2.31783   2.36701
  Beta virt. eigenvalues --    2.37981   2.42713   2.44444   2.45582   2.49238
  Beta virt. eigenvalues --    2.49881   2.52536   2.56824   2.59661   2.62748
  Beta virt. eigenvalues --    2.63256   2.69727   2.71577   2.72275   2.74500
  Beta virt. eigenvalues --    2.77487   2.78549   2.80974   2.83279   2.87319
  Beta virt. eigenvalues --    2.89179   2.90603   2.92510   2.92827   2.93223
  Beta virt. eigenvalues --    2.94568   2.96259   3.00379   3.01858   3.04031
  Beta virt. eigenvalues --    3.04571   3.05363   3.07151   3.10861   3.12451
  Beta virt. eigenvalues --    3.13036   3.13998   3.15169   3.16392   3.18827
  Beta virt. eigenvalues --    3.19043   3.20558   3.22331   3.22469   3.24438
  Beta virt. eigenvalues --    3.25146   3.26053   3.29771   3.30893   3.40078
  Beta virt. eigenvalues --    3.41505   3.42418   3.43222   3.45106   3.46126
  Beta virt. eigenvalues --    3.46937   3.48121   3.51399   3.52644   3.54022
  Beta virt. eigenvalues --    3.54565   3.55799   3.56571   3.58681   3.60428
  Beta virt. eigenvalues --    3.60932   3.62410   3.63640   3.66084   3.68703
  Beta virt. eigenvalues --    3.71404   3.72240   3.78788   3.81167   3.83852
  Beta virt. eigenvalues --    3.84636   3.88856   3.89744   3.90802   3.92093
  Beta virt. eigenvalues --    3.93031   3.93873   3.95289   3.97031   3.97847
  Beta virt. eigenvalues --    3.99089   4.00771   4.01583   4.03961   4.04985
  Beta virt. eigenvalues --    4.10388   4.10564   4.11114   4.13994   4.14746
  Beta virt. eigenvalues --    4.15468   4.18740   4.19952   4.23541   4.24754
  Beta virt. eigenvalues --    4.25701   4.26165   4.27523   4.28905   4.32655
  Beta virt. eigenvalues --    4.33699   4.35918   4.37126   4.41135   4.41972
  Beta virt. eigenvalues --    4.43601   4.44125   4.46299   4.48754   4.50347
  Beta virt. eigenvalues --    4.51628   4.56247   4.64080   4.66702   4.67397
  Beta virt. eigenvalues --    4.68369   4.72771   4.74629   4.80636   4.83275
  Beta virt. eigenvalues --    4.88234   4.93664   4.95275   4.97017   4.98554
  Beta virt. eigenvalues --    5.00147   5.01361   5.01693   5.04564   5.06433
  Beta virt. eigenvalues --    5.08658   5.11987   5.15364   5.18612   5.24937
  Beta virt. eigenvalues --    5.27715   5.28585   5.29880   5.31451   5.32619
  Beta virt. eigenvalues --    5.35191   5.36247   5.39129   5.40799   5.41477
  Beta virt. eigenvalues --    5.43083   5.47594   5.48418   5.51479   5.52319
  Beta virt. eigenvalues --    5.53509   5.54221   5.57732   5.61103   5.68405
  Beta virt. eigenvalues --    5.70599   5.71387   5.82827   5.94835   5.98167
  Beta virt. eigenvalues --    6.00238   6.04086   6.04518   6.07615   6.09010
  Beta virt. eigenvalues --    6.10080   6.12992   6.30807   6.32960   6.43713
  Beta virt. eigenvalues --    6.46523   6.70019   6.78870   6.79469   6.85776
  Beta virt. eigenvalues --    7.00229   7.09426   7.10229   7.23295   7.45687
  Beta virt. eigenvalues --    7.48836   7.64186   7.75474   9.99186  10.86770
  Beta virt. eigenvalues --   11.88760  13.49747  13.82156  13.93349
          Condensed to atoms (all electrons):
               1          2          3          4          5          6
     1  C    4.840267   0.408987   0.413599   0.333492  -0.034134  -0.001397
     2  H    0.408987   0.595924  -0.027138  -0.038234   0.006735  -0.000663
     3  H    0.413599  -0.027138   0.566281  -0.035903  -0.004116   0.000157
     4  C    0.333492  -0.038234  -0.035903   5.150823   0.407144  -0.000349
     5  H   -0.034134   0.006735  -0.004116   0.407144   0.554106   0.000068
     6  C   -0.001397  -0.000663   0.000157  -0.000349   0.000068   4.610918
     7  H   -0.001693  -0.001901   0.000095   0.001350  -0.000175   0.383804
     8  H    0.000135   0.000044  -0.000004   0.000157   0.000004   0.400727
     9  H    0.000027   0.000156   0.000012  -0.000925   0.000016   0.414438
    10  O    0.000147   0.000450  -0.000077  -0.000599   0.000427   0.306402
    11  O    0.006225   0.000009   0.000884  -0.083612   0.000940  -0.044202
    12  H   -0.014707  -0.004208  -0.001740   0.245628  -0.012488   0.002474
    13  H    0.396210  -0.036780  -0.030492  -0.035642  -0.004892  -0.000036
    14  C   -0.058092  -0.004160   0.006578   0.333456  -0.031453  -0.003739
    15  H    0.006469   0.000037  -0.000304  -0.033863  -0.003828  -0.000034
    16  H   -0.003714   0.004132  -0.000008  -0.037330   0.006740  -0.001307
    17  H   -0.002310  -0.000561  -0.000267  -0.037772  -0.004846  -0.000021
               7          8          9         10         11         12
     1  C   -0.001693   0.000135   0.000027   0.000147   0.006225  -0.014707
     2  H   -0.001901   0.000044   0.000156   0.000450   0.000009  -0.004208
     3  H    0.000095  -0.000004   0.000012  -0.000077   0.000884  -0.001740
     4  C    0.001350   0.000157  -0.000925  -0.000599  -0.083612   0.245628
     5  H   -0.000175   0.000004   0.000016   0.000427   0.000940  -0.012488
     6  C    0.383804   0.400727   0.414438   0.306402  -0.044202   0.002474
     7  H    0.714710  -0.039845  -0.059434  -0.054730  -0.003828   0.004300
     8  H   -0.039845   0.586416  -0.026533  -0.025753   0.006758  -0.000849
     9  H   -0.059434  -0.026533   0.607573  -0.038608   0.005616   0.001086
    10  O   -0.054730  -0.025753  -0.038608   7.943843   0.065496  -0.026953
    11  O   -0.003828   0.006758   0.005616   0.065496   8.087152   0.177908
    12  H    0.004300  -0.000849   0.001086  -0.026953   0.177908   0.434951
    13  H    0.000252   0.000009  -0.000007  -0.000044  -0.000021   0.003142
    14  C   -0.002230  -0.000112   0.000663   0.006101  -0.003402  -0.009550
    15  H    0.000164  -0.000116   0.000031   0.002221   0.001203  -0.002413
    16  H   -0.002888   0.000358   0.000087   0.000583   0.000630  -0.005920
    17  H   -0.000181  -0.000016   0.000017   0.000484  -0.000356   0.003491
              13         14         15         16         17
     1  C    0.396210  -0.058092   0.006469  -0.003714  -0.002310
     2  H   -0.036780  -0.004160   0.000037   0.004132  -0.000561
     3  H   -0.030492   0.006578  -0.000304  -0.000008  -0.000267
     4  C   -0.035642   0.333456  -0.033863  -0.037330  -0.037772
     5  H   -0.004892  -0.031453  -0.003828   0.006740  -0.004846
     6  C   -0.000036  -0.003739  -0.000034  -0.001307  -0.000021
     7  H    0.000252  -0.002230   0.000164  -0.002888  -0.000181
     8  H    0.000009  -0.000112  -0.000116   0.000358  -0.000016
     9  H   -0.000007   0.000663   0.000031   0.000087   0.000017
    10  O   -0.000044   0.006101   0.002221   0.000583   0.000484
    11  O   -0.000021  -0.003402   0.001203   0.000630  -0.000356
    12  H    0.003142  -0.009550  -0.002413  -0.005920   0.003491
    13  H    0.607328  -0.001327  -0.000347  -0.000738   0.003658
    14  C   -0.001327   4.842103   0.411953   0.406001   0.399130
    15  H   -0.000347   0.411953   0.550394  -0.025718  -0.029036
    16  H   -0.000738   0.406001  -0.025718   0.599717  -0.036377
    17  H    0.003658   0.399130  -0.029036  -0.036377   0.602202
          Atomic-Atomic Spin Densities.
               1          2          3          4          5          6
     1  C   -0.020472   0.003522   0.003814  -0.026592   0.003939  -0.000259
     2  H    0.003522   0.007390   0.000971  -0.004491   0.000213  -0.000276
     3  H    0.003814   0.000971   0.004843  -0.004057   0.000786  -0.000029
     4  C   -0.026592  -0.004491  -0.004057   0.645532   0.003492   0.001760
     5  H    0.003939   0.000213   0.000786   0.003492  -0.019270  -0.000070
     6  C   -0.000259  -0.000276  -0.000029   0.001760  -0.000070  -0.007228
     7  H    0.001341   0.001487   0.000180  -0.006433   0.000221   0.002176
     8  H   -0.000020  -0.000013  -0.000001   0.000141  -0.000003   0.000723
     9  H   -0.000194  -0.000158  -0.000034   0.001251  -0.000033  -0.001699
    10  O   -0.000834  -0.000300  -0.000053   0.013781  -0.000484   0.002273
    11  O    0.006279   0.001128   0.000772  -0.089125   0.003487  -0.003170
    12  H   -0.005097  -0.000476  -0.000559   0.073565   0.001896   0.001485
    13  H    0.003696  -0.004729  -0.003232  -0.011536  -0.002097   0.000060
    14  C    0.004585   0.000818   0.000118  -0.018329   0.002609  -0.000647
    15  H    0.000296   0.000094   0.000027  -0.003877   0.000969  -0.000127
    16  H    0.001055   0.000600   0.000070  -0.004220   0.000211  -0.000671
    17  H   -0.001095  -0.000862  -0.000206  -0.015236  -0.002710   0.000136
               7          8          9         10         11         12
     1  C    0.001341  -0.000020  -0.000194  -0.000834   0.006279  -0.005097
     2  H    0.001487  -0.000013  -0.000158  -0.000300   0.001128  -0.000476
     3  H    0.000180  -0.000001  -0.000034  -0.000053   0.000772  -0.000559
     4  C   -0.006433   0.000141   0.001251   0.013781  -0.089125   0.073565
     5  H    0.000221  -0.000003  -0.000033  -0.000484   0.003487   0.001896
     6  C    0.002176   0.000723  -0.001699   0.002273  -0.003170   0.001485
     7  H    0.005591  -0.000850  -0.001949  -0.001838   0.005142  -0.004511
     8  H   -0.000850  -0.001923   0.000857   0.000166  -0.000234   0.000124
     9  H   -0.001949   0.000857   0.004118  -0.000772  -0.000156   0.001459
    10  O   -0.001838   0.000166  -0.000772   0.069272  -0.049878   0.011618
    11  O    0.005142  -0.000234  -0.000156  -0.049878   0.627853  -0.060865
    12  H   -0.004511   0.000124   0.001459   0.011618  -0.060865  -0.090332
    13  H   -0.000357   0.000001   0.000021   0.000079  -0.000596   0.000664
    14  C    0.001256  -0.000059  -0.000159  -0.002488   0.006404  -0.000768
    15  H    0.000282  -0.000008  -0.000037  -0.001244   0.001465  -0.000953
    16  H    0.001646  -0.000070  -0.000147  -0.001678   0.001423  -0.000523
    17  H   -0.000406   0.000011   0.000021   0.000454  -0.000922   0.001180
              13         14         15         16         17
     1  C    0.003696   0.004585   0.000296   0.001055  -0.001095
     2  H   -0.004729   0.000818   0.000094   0.000600  -0.000862
     3  H   -0.003232   0.000118   0.000027   0.000070  -0.000206
     4  C   -0.011536  -0.018329  -0.003877  -0.004220  -0.015236
     5  H   -0.002097   0.002609   0.000969   0.000211  -0.002710
     6  C    0.000060  -0.000647  -0.000127  -0.000671   0.000136
     7  H   -0.000357   0.001256   0.000282   0.001646  -0.000406
     8  H    0.000001  -0.000059  -0.000008  -0.000070   0.000011
     9  H    0.000021  -0.000159  -0.000037  -0.000147   0.000021
    10  O    0.000079  -0.002488  -0.001244  -0.001678   0.000454
    11  O   -0.000596   0.006404   0.001465   0.001423  -0.000922
    12  H    0.000664  -0.000768  -0.000953  -0.000523   0.001180
    13  H    0.049415  -0.000602  -0.000199  -0.000677   0.003859
    14  C   -0.000602  -0.031909   0.003904   0.003439   0.003154
    15  H   -0.000199   0.003904   0.007544   0.001488  -0.005150
    16  H   -0.000677   0.003439   0.001488   0.009547  -0.006044
    17  H    0.003859   0.003154  -0.005150  -0.006044   0.064079
 Mulliken charges and spin densities:
               1          2
     1  C   -0.289511  -0.026034
     2  H    0.097169   0.004919
     3  H    0.112443   0.003412
     4  C   -0.167821   0.555626
     5  H    0.119751  -0.006843
     6  C   -0.067240  -0.005564
     7  H    0.062231   0.002978
     8  H    0.098621  -0.001158
     9  H    0.095785   0.002391
    10  O   -0.179391   0.038077
    11  O   -0.217399   0.449007
    12  H    0.205850  -0.072093
    13  H    0.099728   0.033771
    14  C   -0.291919  -0.028673
    15  H    0.123189   0.004473
    16  H    0.095751   0.005450
    17  H    0.102762   0.040262
 Sum of Mulliken charges =  -0.00000   1.00000
 Mulliken charges and spin densities with hydrogens summed into heavy atoms:
               1          2
     1  C    0.019829   0.016068
     4  C   -0.048070   0.548783
     6  C    0.189397  -0.001353
    10  O   -0.179391   0.038077
    11  O   -0.011549   0.376914
    14  C    0.029784   0.021512
 APT charges:
               1
     1  C   -0.053099
     2  H   -0.008411
     3  H   -0.003284
     4  C    0.527902
     5  H   -0.087401
     6  C    0.423999
     7  H   -0.035804
     8  H   -0.005637
     9  H   -0.030107
    10  O   -0.439876
    11  O    0.187073
    12  H   -0.376025
    13  H   -0.026421
    14  C   -0.073015
    15  H    0.009280
    16  H   -0.004173
    17  H   -0.005002
 Sum of APT charges =  -0.00000
 APT charges with hydrogens summed into heavy atoms:
               1
     1  C   -0.091216
     4  C    0.440501
     6  C    0.352451
    10  O   -0.439876
    11  O   -0.188951
    14  C   -0.072910
 Electronic spatial extent (au):  <R**2>=            811.3281
 Charge=             -0.0000 electrons
 Dipole moment (field-independent basis, Debye):
    X=              1.4163    Y=             -0.0719    Z=              2.0091  Tot=              2.4592
 Quadrupole moment (field-independent basis, Debye-Ang):
   XX=            -37.2351   YY=            -39.8053   ZZ=            -39.8995
   XY=              0.5181   XZ=             -4.5398   YZ=             -0.4080
 Traceless Quadrupole moment (field-independent basis, Debye-Ang):
   XX=              1.7448   YY=             -0.8253   ZZ=             -0.9195
   XY=              0.5181   XZ=             -4.5398   YZ=             -0.4080
 Octapole moment (field-independent basis, Debye-Ang**2):
  XXX=            -12.8220  YYY=             -0.6725  ZZZ=             -3.1335  XYY=             -3.0911
  XXY=             -1.6534  XXZ=              4.5954  XZZ=             -2.9629  YZZ=              0.8015
  YYZ=             -1.9506  XYZ=              0.2111
 Hexadecapole moment (field-independent basis, Debye-Ang**3):
 XXXX=           -649.2907 YYYY=           -228.8723 ZZZZ=           -173.6321 XXXY=              6.0226
 XXXZ=             -8.5172 YYYX=             -1.6760 YYYZ=              1.5434 ZZZX=             -2.9194
 ZZZY=              0.5323 XXYY=           -148.2619 XXZZ=           -138.5011 YYZZ=            -67.0552
 XXYZ=              3.7836 YYXZ=             -1.7777 ZZXY=             -2.2537
 N-N= 2.596437608284D+02 E-N=-1.242047787960D+03  KE= 3.075179708176D+02
  Exact polarizability:  97.439   1.873  60.651  -0.858   1.496  58.160
 Approx polarizability:  86.283   0.160  65.797   0.914   3.348  67.420
                          Isotropic Fermi Contact Couplings
        Atom                 a.u.       MegaHertz       Gauss      10(-4) cm-1
     1  C(13)             -0.01021     -11.47694      -4.09526      -3.82830
     2  H(1)               0.00234      10.47590       3.73806       3.49438
     3  H(1)               0.00262      11.70516       4.17669       3.90442
     4  C(13)              0.09059     101.84207      36.33978      33.97086
     5  H(1)              -0.00262     -11.72772      -4.18474      -3.91195
     6  C(13)             -0.00444      -4.98865      -1.78007      -1.66403
     7  H(1)               0.00223       9.96726       3.55656       3.32472
     8  H(1)              -0.00022      -0.98363      -0.35098      -0.32810
     9  H(1)               0.00077       3.42651       1.22267       1.14296
    10  O(17)              0.01711     -10.36980      -3.70020      -3.45899
    11  O(17)              0.05396     -32.70856     -11.67123     -10.91040
    12  H(1)              -0.01933     -86.42102     -30.83717     -28.82695
    13  H(1)               0.01598      71.42592      25.48654      23.82512
    14  C(13)             -0.00813      -9.13451      -3.25942      -3.04694
    15  H(1)               0.00324      14.47041       5.16340       4.82681
    16  H(1)               0.00336      15.02025       5.35960       5.01021
    17  H(1)               0.01872      83.67359      29.85682      27.91050
 --------------------------------------------------------
       Center         ----  Spin Dipole Couplings  ----
                      3XX-RR        3YY-RR        3ZZ-RR
 --------------------------------------------------------
     1   Atom        0.005227     -0.005659      0.000433
     2   Atom       -0.004303     -0.002576      0.006879
     3   Atom       -0.001887      0.008697     -0.006811
     4   Atom        0.536358     -0.247499     -0.288860
     5   Atom        0.005548     -0.037770      0.032222
     6   Atom       -0.001337     -0.005705      0.007041
     7   Atom       -0.002399     -0.005869      0.008268
     8   Atom        0.000507     -0.003588      0.003081
     9   Atom        0.001391     -0.003398      0.002007
    10   Atom        0.395151     -0.235129     -0.160021
    11   Atom        1.246190     -0.651629     -0.594561
    12   Atom        0.201677     -0.103332     -0.098345
    13   Atom        0.004485     -0.002139     -0.002346
    14   Atom       -0.003315      0.011227     -0.007912
    15   Atom       -0.004126      0.011953     -0.007828
    16   Atom       -0.003869     -0.000802      0.004671
    17   Atom        0.000945      0.003227     -0.004172
 --------------------------------------------------------
                        XY            XZ            YZ
 --------------------------------------------------------
     1   Atom       -0.010844      0.018024     -0.011462
     2   Atom       -0.000534      0.002839     -0.007830
     3   Atom       -0.006324      0.001845     -0.003333
     4   Atom        0.282997      0.206105      0.067278
     5   Atom        0.011739     -0.019946      0.001209
     6   Atom       -0.000864     -0.007545     -0.001252
     7   Atom        0.000750     -0.003383     -0.001488
     8   Atom       -0.000914     -0.004605      0.001636
     9   Atom        0.002782     -0.006431     -0.003213
    10   Atom        0.144822      0.196725      0.019663
    11   Atom        0.821660      0.904662      0.334447
    12   Atom        0.069406      0.080646      0.020408
    13   Atom       -0.001893      0.005550     -0.003685
    14   Atom        0.012109      0.007197      0.014949
    15   Atom       -0.001532      0.000463     -0.000135
    16   Atom       -0.001321     -0.001730      0.009212
    17   Atom        0.004184      0.002592      0.005108
 --------------------------------------------------------


 ---------------------------------------------------------------------------------
              Anisotropic Spin Dipole Couplings in Principal Axis System
 ---------------------------------------------------------------------------------

       Atom             a.u.   MegaHertz   Gauss  10(-4) cm-1        Axes

              Baa    -0.0160    -2.141    -0.764    -0.714 -0.4831  0.3730  0.7921
     1 C(13)  Bbb    -0.0123    -1.655    -0.591    -0.552  0.5600  0.8271 -0.0480
              Bcc     0.0283     3.796     1.355     1.266  0.6731 -0.4204  0.6084
 
              Baa    -0.0073    -3.908    -1.395    -1.304 -0.3340  0.7957  0.5053
     2 H(1)   Bbb    -0.0044    -2.369    -0.845    -0.790  0.9274  0.3731  0.0255
              Bcc     0.0118     6.277     2.240     2.094  0.1683 -0.4772  0.8625
 
              Baa    -0.0076    -4.048    -1.444    -1.350 -0.1657  0.1355  0.9768
     3 H(1)   Bbb    -0.0048    -2.570    -0.917    -0.857  0.8933  0.4403  0.0905
              Bcc     0.0124     6.618     2.361     2.207 -0.4178  0.8876 -0.1941
 
              Baa    -0.3392   -45.518   -16.242   -15.183 -0.2186  0.9178 -0.3315
     4 C(13)  Bbb    -0.3373   -45.267   -16.152   -15.099 -0.3006  0.2599  0.9177
              Bcc     0.6765    90.785    32.394    30.283  0.9283  0.3003  0.2191
 
              Baa    -0.0413   -22.038    -7.864    -7.351 -0.2784  0.9561 -0.0913
     5 H(1)   Bbb    -0.0018    -0.976    -0.348    -0.326  0.8309  0.2874  0.4765
              Bcc     0.0431    23.014     8.212     7.677 -0.4818 -0.0568  0.8744
 
              Baa    -0.0071    -0.957    -0.341    -0.319  0.6025  0.7004  0.3826
     6 C(13)  Bbb    -0.0044    -0.587    -0.209    -0.196 -0.6186  0.7128 -0.3306
              Bcc     0.0115     1.544     0.551     0.515 -0.5043 -0.0375  0.8627
 
              Baa    -0.0061    -3.243    -1.157    -1.082 -0.1368  0.9881  0.0702
     7 H(1)   Bbb    -0.0033    -1.786    -0.637    -0.596  0.9503  0.1109  0.2910
              Bcc     0.0094     5.029     1.795     1.678 -0.2798 -0.1066  0.9541
 
              Baa    -0.0040    -2.125    -0.758    -0.709 -0.0975  0.9537 -0.2845
     8 H(1)   Bbb    -0.0029    -1.559    -0.556    -0.520  0.8003  0.2451  0.5472
              Bcc     0.0069     3.684     1.314     1.229 -0.5916  0.1743  0.7872
 
              Baa    -0.0050    -2.647    -0.944    -0.883  0.3167  0.7158  0.6224
     9 H(1)   Bbb    -0.0046    -2.439    -0.870    -0.813  0.6886 -0.6248  0.3681
              Bcc     0.0095     5.085     1.815     1.696 -0.6523 -0.3120  0.6908
 
              Baa    -0.2754    19.930     7.112     6.648 -0.2950  0.8885  0.3514
    10 O(17)  Bbb    -0.2111    15.276     5.451     5.096 -0.1896 -0.4149  0.8899
              Bcc     0.4865   -35.206   -12.562   -11.743  0.9365  0.1959  0.2909
 
              Baa    -0.9650    69.830    24.917    23.293 -0.4306  0.1868  0.8830
    11 O(17)  Bbb    -0.9571    69.254    24.712    23.101 -0.2209  0.9268 -0.3038
              Bcc     1.9221  -139.084   -49.629   -46.393  0.8751  0.3259  0.3579
 
              Baa    -0.1214   -64.797   -23.121   -21.614 -0.0308 -0.6934  0.7199
    12 H(1)   Bbb    -0.1159   -61.827   -22.061   -20.623 -0.3162  0.6900  0.6511
              Bcc     0.2373   126.624    45.182    42.237  0.9482  0.2076  0.2404
 
              Baa    -0.0068    -3.636    -1.297    -1.213 -0.3097  0.5081  0.8037
    13 H(1)   Bbb    -0.0019    -1.018    -0.363    -0.339  0.5083  0.8028 -0.3117
              Bcc     0.0087     4.653     1.660     1.552  0.8036 -0.3120  0.5069
 
              Baa    -0.0161    -2.164    -0.772    -0.722 -0.0690 -0.4547  0.8880
    14 C(13)  Bbb    -0.0100    -1.343    -0.479    -0.448  0.8996 -0.4132 -0.1417
              Bcc     0.0261     3.507     1.252     1.170  0.4313  0.7890  0.4376
 
              Baa    -0.0079    -4.207    -1.501    -1.403 -0.1233 -0.0028  0.9924
    15 H(1)   Bbb    -0.0042    -2.249    -0.802    -0.750  0.9879  0.0946  0.1230
              Bcc     0.0121     6.456     2.304     2.153 -0.0942  0.9955 -0.0089
 
              Baa    -0.0077    -4.095    -1.461    -1.366  0.0067  0.8019 -0.5974
    16 H(1)   Bbb    -0.0042    -2.225    -0.794    -0.742  0.9905  0.0766  0.1140
              Bcc     0.0118     6.320     2.255     2.108 -0.1372  0.5925  0.7938
 
              Baa    -0.0068    -3.633    -1.296    -1.212 -0.0693 -0.4295  0.9004
    17 H(1)   Bbb    -0.0021    -1.102    -0.393    -0.368  0.8473 -0.5018 -0.1741
              Bcc     0.0089     4.735     1.689     1.579  0.5266  0.7508  0.3986
 

 ---------------------------------------------------------------------------------

 Calling FoFJK, ICntrl=  10100127 FMM=F ISym2X=0 I1Cent= 0 IOpClX= 1 NMat=1 NMatS=1 NMatT=0.
 ***** Axes restored to original set *****
 -------------------------------------------------------------------
 Center     Atomic                   Forces (Hartrees/Bohr)
 Number     Number              X              Y              Z
 -------------------------------------------------------------------
      1        6           0.000498631   -0.000130982    0.000472348
      2        1           0.000542067   -0.000242566   -0.000496273
      3        1           0.000074368    0.000242159    0.000257804
      4        6          -0.002026366   -0.001168869   -0.001602241
      5        1           0.000269155    0.000093919    0.000461930
      6        6          -0.000709658   -0.003006402    0.004763854
      7        1          -0.001518454    0.000046045    0.000110497
      8        1           0.000211329   -0.000184909   -0.000435734
      9        1           0.000203064    0.000412382    0.000570137
     10        8          -0.007622280    0.011159289    0.002522401
     11        8           0.003576451   -0.009183225   -0.007980171
     12        1           0.005678107    0.001185105    0.001132728
     13        1          -0.000180724   -0.000449813    0.000058263
     14        6           0.000131554    0.000685973    0.000512399
     15        1           0.000458538   -0.000150196    0.000508165
     16        1           0.000796746    0.000540823   -0.000782189
     17        1          -0.000382528    0.000151267   -0.000073916
 -------------------------------------------------------------------
 Cartesian Forces:  Max     0.011159289 RMS     0.002913234
 FormGI is forming the generalized inverse of G from B-inverse, IUseBI=4.

 GradGradGradGradGradGradGradGradGradGradGradGradGradGradGradGradGradGrad
 Berny optimization.
 Internal  Forces:  Max     0.014553119 RMS     0.002341889
 Search for a saddle point.
 Step number   1 out of a maximum of  102
 All quantities printed in internal units (Hartrees-Bohrs-Radians)
 Swapping is turned off.
 Second derivative matrix not updated -- analytic derivatives used.
 ITU=  0
     Eigenvalues ---   -0.07404   0.00105   0.00182   0.00268   0.00624
     Eigenvalues ---    0.01913   0.02377   0.02632   0.04323   0.04360
     Eigenvalues ---    0.04438   0.04455   0.04549   0.05238   0.06714
     Eigenvalues ---    0.08497   0.08524   0.09372   0.11178   0.11981
     Eigenvalues ---    0.12296   0.13318   0.13901   0.14449   0.15177
     Eigenvalues ---    0.16783   0.17558   0.17775   0.18559   0.22768
     Eigenvalues ---    0.28314   0.30135   0.31355   0.32618   0.32708
     Eigenvalues ---    0.32882   0.33424   0.33695   0.33894   0.34112
     Eigenvalues ---    0.34515   0.34625   0.34826   0.36234   0.43946
 Eigenvectors required to have negative eigenvalues:
                          R13       R6        R12       D16       D4
   1                   -0.71116   0.64693   0.15209  -0.05951   0.05947
                          A20       D3        D14       D18       D7
   1                   -0.05909  -0.05432   0.05339  -0.05091   0.05074
 RFO step:  Lambda0=9.006440764D-05 Lambda=-1.19633065D-03.
 Linear search not attempted -- option 19 set.
 Iteration  1 RMS(Cart)=  0.05544143 RMS(Int)=  0.00078967
 Iteration  2 RMS(Cart)=  0.00145413 RMS(Int)=  0.00005841
 Iteration  3 RMS(Cart)=  0.00000167 RMS(Int)=  0.00005841
 Iteration  4 RMS(Cart)=  0.00000000 RMS(Int)=  0.00005841
 Variable       Old X    -DE/DX   Delta X   Delta X   Delta X     New X
                                 (Linear)    (Quad)   (Total)
    R1        2.06143  -0.00069   0.00000  -0.00190  -0.00190   2.05952
    R2        2.05781  -0.00033   0.00000  -0.00092  -0.00092   2.05689
    R3        2.84275   0.00092   0.00000  -0.00003  -0.00003   2.84272
    R4        2.06955  -0.00024   0.00000  -0.00057  -0.00057   2.06897
    R5        2.05827  -0.00029   0.00000  -0.00122  -0.00122   2.05706
    R6        2.50819  -0.00014   0.00000   0.01860   0.01860   2.52678
    R7        2.83945   0.00103   0.00000   0.00082   0.00082   2.84027
    R8        2.06529  -0.00124   0.00000  -0.00322  -0.00322   2.06207
    R9        2.05697  -0.00045   0.00000  -0.00067  -0.00067   2.05630
   R10        2.05960  -0.00053   0.00000  -0.00220  -0.00220   2.05739
   R11        2.66941   0.00595   0.00000   0.01361   0.01361   2.68302
   R12        2.60910   0.01455   0.00000   0.04822   0.04822   2.65732
   R13        2.25675   0.00586   0.00000  -0.01217  -0.01217   2.24457
   R14        2.05734  -0.00062   0.00000  -0.00153  -0.00153   2.05581
   R15        2.06219  -0.00113   0.00000  -0.00266  -0.00266   2.05954
   R16        2.07016  -0.00029   0.00000  -0.00067  -0.00067   2.06949
    A1        1.89106  -0.00026   0.00000  -0.00110  -0.00110   1.88996
    A2        1.93894   0.00040   0.00000   0.00249   0.00248   1.94142
    A3        1.87260  -0.00035   0.00000  -0.00010  -0.00011   1.87249
    A4        1.95258  -0.00003   0.00000  -0.00136  -0.00136   1.95122
    A5        1.87949  -0.00032   0.00000  -0.00230  -0.00230   1.87719
    A6        1.92629   0.00050   0.00000   0.00223   0.00223   1.92852
    A7        1.98719   0.00011   0.00000  -0.00001  -0.00018   1.98700
    A8        1.86078  -0.00036   0.00000  -0.00617  -0.00620   1.85458
    A9        2.03771  -0.00005   0.00000   0.00604   0.00613   2.04384
   A10        1.74042  -0.00018   0.00000  -0.00500  -0.00501   1.73542
   A11        1.98579  -0.00047   0.00000   0.00038   0.00043   1.98622
   A12        1.80979   0.00106   0.00000   0.00222   0.00224   1.81203
   A13        1.91869  -0.00039   0.00000  -0.00157  -0.00156   1.91714
   A14        1.91379  -0.00052   0.00000   0.00137   0.00134   1.91513
   A15        1.92871   0.00142   0.00000   0.00789   0.00788   1.93659
   A16        1.92655  -0.00029   0.00000  -0.00196  -0.00196   1.92459
   A17        1.84765  -0.00083   0.00000  -0.00929  -0.00929   1.83836
   A18        1.92768   0.00062   0.00000   0.00326   0.00324   1.93092
   A19        1.88833   0.00191   0.00000  -0.00666  -0.00666   1.88167
   A20        1.81519   0.00698   0.00000   0.00718   0.00718   1.82238
   A21        1.94905   0.00021   0.00000   0.00033   0.00033   1.94937
   A22        1.93945   0.00062   0.00000   0.00297   0.00297   1.94242
   A23        1.92588   0.00017   0.00000   0.00060   0.00060   1.92649
   A24        1.88633  -0.00030   0.00000   0.00012   0.00012   1.88645
   A25        1.88649  -0.00035   0.00000  -0.00352  -0.00352   1.88297
   A26        1.87406  -0.00041   0.00000  -0.00073  -0.00073   1.87333
   A27        3.08386   0.00398   0.00000   0.02794   0.02798   3.11184
   A28        3.04873   0.00282   0.00000   0.04622   0.04626   3.09499
    D1       -3.01392  -0.00004   0.00000   0.00739   0.00743  -3.00649
    D2       -1.11254  -0.00041   0.00000  -0.00208  -0.00211  -1.11464
    D3        0.89951   0.00064   0.00000  -0.00017  -0.00017   0.89934
    D4       -0.89806  -0.00010   0.00000   0.00678   0.00682  -0.89124
    D5        1.00332  -0.00047   0.00000  -0.00268  -0.00272   1.00060
    D6        3.01537   0.00058   0.00000  -0.00077  -0.00078   3.01459
    D7        1.19434  -0.00018   0.00000   0.00449   0.00453   1.19887
    D8        3.09573  -0.00055   0.00000  -0.00497  -0.00501   3.09072
    D9       -1.17541   0.00050   0.00000  -0.00307  -0.00307  -1.17848
   D10        1.89252   0.00066   0.00000   0.02455   0.02424   1.91677
   D11       -2.29817  -0.00046   0.00000   0.00794   0.00822  -2.28995
   D12       -0.25327  -0.00065   0.00000   0.01141   0.01144  -0.24183
   D13       -3.00271  -0.00033   0.00000  -0.00081  -0.00084  -3.00355
   D14       -0.89498  -0.00014   0.00000   0.00163   0.00160  -0.89338
   D15        1.18183  -0.00014   0.00000   0.00301   0.00298   1.18482
   D16        0.91012   0.00010   0.00000  -0.00820  -0.00817   0.90195
   D17        3.01785   0.00029   0.00000  -0.00575  -0.00573   3.01212
   D18       -1.18852   0.00029   0.00000  -0.00438  -0.00435  -1.19287
   D19       -0.96246  -0.00007   0.00000  -0.00373  -0.00373  -0.96619
   D20        1.14527   0.00012   0.00000  -0.00129  -0.00129   1.14398
   D21       -3.06110   0.00012   0.00000   0.00009   0.00009  -3.06101
   D22        1.11186   0.00041   0.00000   0.02384   0.02387   1.13573
   D23       -3.09453   0.00022   0.00000   0.02074   0.02073  -3.07381
   D24       -1.00891  -0.00029   0.00000   0.01468   0.01466  -0.99425
   D25       -1.60089  -0.00204   0.00000  -0.02977  -0.02977  -1.63066
         Item               Value     Threshold  Converged?
 Maximum Force            0.014553     0.000450     NO 
 RMS     Force            0.002342     0.000300     NO 
 Maximum Displacement     0.221056     0.001800     NO 
 RMS     Displacement     0.056184     0.001200     NO 
 Predicted change in Energy=-5.580775D-04
 GradGradGradGradGradGradGradGradGradGradGradGradGradGradGradGradGradGrad

                          Input orientation:                          
 ---------------------------------------------------------------------
 Center     Atomic      Atomic             Coordinates (Angstroms)
 Number     Number       Type             X           Y           Z
 ---------------------------------------------------------------------
      1          6           0        1.958567   -1.045883    0.434590
      2          1           0        1.385990   -1.129136    1.358172
      3          1           0        1.930571   -2.008564   -0.072562
      4          6           0        1.429186    0.060138   -0.436846
      5          1           0        1.881999    0.096013   -1.426092
      6          6           0       -2.060482   -0.220515    0.910065
      7          1           0       -1.177123   -0.409381    1.522213
      8          1           0       -2.704102    0.504565    1.404103
      9          1           0       -2.599129   -1.152109    0.744790
     10          8           0       -1.702672    0.376821   -0.327257
     11          8           0       -0.939913   -0.556863   -1.051003
     12          1           0        0.185802   -0.294378   -0.777721
     13          1           0        2.998979   -0.849633    0.713396
     14          6           0        1.255704    1.410371    0.200179
     15          1           0        0.742616    2.104442   -0.462020
     16          1           0        0.684483    1.340852    1.125742
     17          1           0        2.230562    1.842250    0.450057
 ---------------------------------------------------------------------
                    Distance matrix (angstroms):
                    1          2          3          4          5
     1  C    0.000000
     2  H    1.089852   0.000000
     3  H    1.088459   1.765492   0.000000
     4  C    1.504303   2.153678   2.159541   0.000000
     5  H    2.184474   3.082068   2.502728   1.088547   0.000000
     6  C    4.130383   3.592293   4.482319   3.751096   4.593580
     7  H    3.379439   2.667304   3.841674   3.294117   4.278569
     8  H    5.008425   4.404537   5.475085   4.546502   5.404557
     9  H    4.569474   4.032113   4.681854   4.369568   5.133327
    10  O    4.001146   3.827325   4.353779   3.149736   3.759808
    11  O    3.293526   3.397271   3.362211   2.523987   2.920638
    12  H    2.275336   2.588303   2.545565   1.337117   1.857383
    13  H    1.094854   1.759429   1.761348   2.148253   2.592161
    14  C    2.565570   2.794105   3.495562   1.503006   2.182782
    15  H    3.493851   3.766041   4.298806   2.156662   2.502282
    16  H    2.792397   2.578173   3.769251   2.153252   3.081481
    17  H    2.900954   3.219800   3.897678   2.145862   2.586653
                    6          7          8          9         10
     6  C    0.000000
     7  H    1.091201   0.000000
     8  H    1.088146   1.783511   0.000000
     9  H    1.088726   1.782731   1.786136   0.000000
    10  O    1.419790   2.077223   2.004193   2.071364   0.000000
    11  O    2.283548   2.588332   3.204144   2.516384   1.406192
    12  H    2.810671   2.675909   3.708128   3.287793   2.054206
    13  H    5.102217   4.276428   5.902208   5.606361   4.969172
    14  C    3.763086   3.313295   4.236741   4.660755   3.177798
    15  H    3.891710   3.733884   4.233425   4.819624   2.997043
    16  H    3.165315   2.585746   3.501338   4.140300   2.956192
    17  H    4.783269   4.222757   5.201010   5.690251   4.268726
                   11         12         13         14         15
    11  O    0.000000
    12  H    1.187777   0.000000
    13  H    4.325932   3.231981   0.000000
    14  C    3.202530   2.237666   2.900004   0.000000
    15  H    3.203178   2.482750   3.898633   1.087888   0.000000
    16  H    3.313337   2.558483   3.213277   1.089860   1.762793
    17  H    4.249803   3.202133   2.811769   1.095128   1.764826
                   16         17
    16  H    0.000000
    17  H    1.760202   0.000000
 Stoichiometry    C4H11O2(2)
 Framework group  C1[X(C4H11O2)]
 Deg. of freedom    45
 Full point group                 C1      NOp   1
 Largest Abelian subgroup         C1      NOp   1
 Largest concise Abelian subgroup C1      NOp   1
                         Standard orientation:                         
 ---------------------------------------------------------------------
 Center     Atomic      Atomic             Coordinates (Angstroms)
 Number     Number       Type             X           Y           Z
 ---------------------------------------------------------------------
      1          6           0        1.940508   -1.070802    0.449922
      2          1           0        1.358011   -1.144969    1.368058
      3          1           0        1.903241   -2.033351   -0.056886
      4          6           0        1.435704    0.042197   -0.427194
      5          1           0        1.898387    0.070696   -1.412103
      6          6           0       -2.070361   -0.186316    0.886584
      7          1           0       -1.195729   -0.387637    1.507235
      8          1           0       -2.707961    0.548482    1.374025
      9          1           0       -2.620999   -1.110046    0.716754
     10          8           0       -1.692080    0.404788   -0.347639
     11          8           0       -0.936227   -0.540508   -1.063514
     12          1           0        0.190560   -0.294330   -0.779682
     13          1           0        2.980984   -0.889599    0.738506
     14          6           0        1.275966    1.395304    0.207324
     15          1           0        0.779426    2.096316   -0.460157
     16          1           0        0.695006    1.334851    1.127446
     17          1           0        2.254624    1.813049    0.466213
 ---------------------------------------------------------------------
 Rotational constants (GHZ):           4.6703344           1.7654861           1.6670951
 Standard basis: CC-pVTZ (5D, 7F)
 There are   375 symmetry adapted cartesian basis functions of A   symmetry.
 There are   334 symmetry adapted basis functions of A   symmetry.
   334 basis functions,   499 primitive gaussians,   375 cartesian basis functions
    26 alpha electrons       25 beta electrons
       nuclear repulsion energy       257.3420237576 Hartrees.
 NAtoms=   17 NActive=   17 NUniq=   17 SFac= 1.00D+00 NAtFMM=   60 NAOKFM=F Big=F
 Integral buffers will be    131072 words long.
 Raffenetti 2 integral format.
 Two-electron integral symmetry is turned on.
 Nuclear repulsion after empirical dispersion term =      257.3336892977 Hartrees.
 One-electron integrals computed using PRISM.
 NBasis=   334 RedAO= T EigKep=  7.93D-04  NBF=   334
 NBsUse=   334 1.00D-06 EigRej= -1.00D+00 NBFU=   334
 Initial guess from the checkpoint file:  "/localscratch/341085/Gau-40849.chk"
 B after Tr=    -0.000000   -0.000000   -0.000000
         Rot=    0.999973    0.001302    0.004322    0.005879 Ang=   0.85 deg.
 Initial guess <Sx>= 0.0000 <Sy>= 0.0000 <Sz>= 0.5000 <S**2>= 0.7684 S= 0.5092
 ExpMin= 1.03D-01 ExpMax= 1.53D+04 ExpMxC= 5.22D+02 IAcc=3 IRadAn=         5 AccDes= 0.00D+00
 Harris functional with IExCor=  419 and IRadAn=       5 diagonalized for initial guess.
 HarFok:  IExCor=  419 AccDes= 0.00D+00 IRadAn=         5 IDoV= 1 UseB2=F ITyADJ=14
 ICtDFT=  3500011 ScaDFX=  1.000000  1.000000  1.000000  1.000000
 FoFCou: FMM=F IPFlag=           0 FMFlag=      100000 FMFlg1=           0
         NFxFlg=           0 DoJE=T BraDBF=F KetDBF=T FulRan=T
         wScrn=  0.000000 ICntrl=       500 IOpCl=  0 I1Cent=   200000004 NGrid=           0
         NMat0=    1 NMatS0=      1 NMatT0=    0 NMatD0=    1 NMtDS0=    0 NMtDT0=    0
[...]
   yx         0.104862D+01      0.155389D+00      0.172894D+00
   yy         0.610551D+02      0.904743D+01      0.100666D+02
   zx         0.178958D+02      0.265189D+01      0.295063D+01
   zy         0.246274D+01      0.364940D+00      0.406050D+00
   zz         0.693380D+02      0.102748D+02      0.114323D+02

 ----------------------------------------------------------------------
 1\1\GINC-N58\Freq\UB2PLYPD3-FC\CC-pVTZ\C4H11O2(2)\ROOT\07-Jun-2019\0\\
 #N Geom=AllCheck Guess=TCheck SCRF=Check GenChk UB2PLYPD3(FC)/CC-pVTZ 
 Freq\\Title Card Required\\0,2\C,1.9656852378,-1.0443285718,0.43175690
 05\H,1.4012754335,-1.1247808205,1.3605908561\H,1.9297281367,-2.0073668
 677,-0.0741998982\C,1.4321204633,0.0624932088,-0.4360824209\H,1.876313
 8036,0.095853178,-1.4293264023\C,-2.0798567423,-0.2248348358,0.9091057
 168\H,-1.2024627432,-0.40657921,1.5317632713\H,-2.7332935207,0.4980950
 359,1.3933753254\H,-2.6114350625,-1.1598932553,0.7406925333\O,-1.71187
 64997,0.3710038531,-0.3261858145\O,-0.9380952352,-0.563808157,-1.04081
 10453\H,0.1854730715,-0.2901851286,-0.7673968449\H,3.0092726436,-0.851
 3551776,0.7007861507\C,1.2695347658,1.4142162322,0.2007471666\H,0.7545
 619864,2.1099446233,-0.4582653727\H,0.7057614078,1.3484974502,1.131110
 1955\H,2.2483318536,1.8420184427,0.4421456825\\Version=ES64L-G16RevB.0
 1\State=2-A\HF=-308.7951693\MP2=-309.1882252\PUHF=-308.8013879\PMP2-0=
 -309.1887386\S2=0.768448\S2-1=0.742707\S2A=0.750153\RMSD=1.597e-09\RMS
 F=7.689e-06\ZeroPoint=0.1418378\Thermal=0.1510227\Dipole=0.5187493,0.0
 042234,0.7806919\DipoleDeriv=-0.1963697,0.0728833,-0.0524624,-0.087411
 ,-0.0117496,0.0256811,-0.0581857,0.0392699,0.0363245,0.0209993,-0.0106
 325,0.107986,0.0310814,0.0429922,-0.0031318,0.0640338,0.0275153,-0.082
 9639,0.0848543,-0.0110235,-0.012592,0.0313855,-0.1064892,-0.0462554,-0
 .0060621,-0.0744013,0.0166218,1.1943887,0.0869385,0.0441158,0.3082285,
 0.2514529,-0.0032572,0.3913796,0.0335193,0.1628484,-0.1346028,0.004291
 5,0.081245,-0.0345548,-0.0154673,0.0153145,-0.0155475,-0.0024419,-0.10
 46069,0.4727325,0.0390483,-0.0360989,0.2087716,0.3362024,-0.0958156,-0
 .3703517,-0.1040683,0.4640645,-0.0947163,0.0303692,-0.1240151,-0.04806
 27,0.0314198,0.0374322,0.02487,0.0205645,-0.0522425,-0.0131372,0.05571
 82,0.0659798,0.0738839,-0.0138697,-0.0421292,0.0964526,-0.0166464,0.00
 51446,-0.0181158,-0.0666929,0.0114407,-0.1653373,-0.0796152,0.0369916,
 0.002089,-0.0525593,0.0108969,-0.7481032,-0.0854004,-0.0371918,0.58124
 83,-0.2287276,0.0890717,0.6556589,0.1276,-0.3329158,0.9423122,0.088720
 5,0.1024537,-0.5677978,-0.2143149,-0.0019766,-0.2880151,0.0565757,-0.2
 693141,-1.2122035,-0.149815,-0.0708201,-0.2655383,0.0579544,-0.035742,
 -0.2899765,-0.0509134,0.0919155,-0.148951,-0.0126855,-0.0592361,0.0299
 978,0.0336689,0.0029263,-0.1202369,0.0207652,0.0435231,-0.1721512,-0.0
 723516,-0.0290026,0.0135068,-0.0837172,-0.0271899,-0.0353251,-0.033117
 5,0.0339937,0.0568292,0.0854296,-0.0463735,0.0391663,-0.0291091,0.0400
 521,-0.03871,0.0608781,0.0003282,0.0390615,0.0175765,0.0952828,-0.0184
 092,0.0329621,0.0374058,0.0699732,-0.0015648,-0.0812666,-0.072827,-0.0
 723743,-0.0407114,-0.1301591,-0.003593,-0.0293776,-0.0820464,-0.050975
 2,0.0576487\Polar=97.9051894,2.2815329,61.0744321,-1.1024674,1.4562995
 ,58.1579968\PG=C01 [X(C4H11O2)]\NImag=1\\0.51827486,0.01584169,0.53048
 432,-0.03071858,0.04182883,0.54025369,-0.11927166,-0.00921760,0.119738
 53,0.12846189,-0.00850834,-0.05037038,0.01307488,0.00780660,0.05117344
 ,0.11820020,0.01318426,-0.23502460,-0.12905247,-0.01868030,0.25837559,
 -0.04577100,-0.01076464,-0.00375539,0.00024094,0.01628056,0.00764495,0
 .04753469,-0.00934117,-0.25394149,-0.11131008,0.00036350,0.00323480,0.
 00165058,0.00821536,0.27793576,-0.00347663,-0.11242506,-0.10992390,-0.
 00266587,-0.02395489,-0.01234915,0.00658172,0.12079300,0.11567188,-0.0
 7252443,0.03683189,-0.01915030,0.00619745,-0.01380013,0.00954661,-0.00
 227095,-0.00050783,0.00089210,0.24482035,0.04533303,-0.14810266,0.0584
 2722,0.00124591,-0.00141730,0.00201686,0.01245687,-0.02048604,0.018997
 86,-0.07599732,0.45620097,-0.02311186,0.05347278,-0.13012986,-0.013137
 30,0.02171851,-0.01956073,0.00673714,-0.01274583,0.01153749,-0.0927774
 8,-0.01909045,0.55115021,0.00749787,0.00219493,-0.01408737,0.00003655,
 0.00229223,-0.00166172,0.00007227,-0.00028394,0.00054706,-0.07871349,0
 .00329943,0.11711711,0.08246117,-0.01075790,0.00042828,0.02108482,0.00
 247938,-0.00317878,0.00344120,-0.00069799,0.00087247,-0.00084036,0.002
 26411,-0.05098127,0.01337006,-0.00334235,0.05452135,0.00956968,0.00086
 205,-0.01445475,-0.00190575,0.00289038,-0.00073017,-0.00018558,0.00036
 785,0.00072598,0.10242686,0.00879989,-0.26817920,-0.11359355,-0.010484
 96,0.29037849,0.00109566,0.00040439,0.00054007,-0.00022336,0.00015097,
 -0.00031354,0.00000078,-0.00004868,-0.00004772,-0.00286825,-0.00161347
 ,0.00009243,0.00034968,0.00008550,-0.00019758,0.57861426,0.00114726,0.
 00064231,-0.00017829,-0.00002984,-0.00013098,0.00025379,-0.00007884,-0
 .00003536,-0.00001149,-0.00432314,-0.00113216,-0.00149919,0.00049249,0
 .00015064,0.00036133,-0.03097628,0.59632882,-0.00235647,-0.00129058,0.
 00103236,0.00003190,0.00033116,-0.00102138,0.00019023,0.00007990,-0.00
 006566,0.01162097,0.00299420,0.00507122,-0.00175985,-0.00048450,-0.000
 91177,0.03019559,0.05441528,0.46991153,-0.00025891,0.00010398,-0.00026
 251,-0.00027958,0.00010688,0.00021694,0.00007042,0.00003784,-0.0000712
 9,-0.00082510,-0.00025277,-0.00039561,0.00007541,0.00002768,0.00005913
 ,-0.23091668,0.03196815,-0.11646029,0.24111357,-0.00027773,-0.00024698
 ,-0.00011135,0.00014603,0.00016829,0.00004855,0.00006964,-0.00005006,-
 0.00003326,0.00134244,0.00081807,0.00051570,-0.00017645,-0.00016848,-0
 .00012529,0.02884863,-0.05748869,0.01798501,-0.03413920,0.05787914,0.0
 0072637,0.00028125,-0.00026755,0.00008912,-0.00010907,0.00041400,-0.00
 004511,0.00000226,0.00001144,-0.00240777,-0.00082102,-0.00088684,0.000
 23528,0.00007287,0.00017031,-0.11166514,0.01511009,-0.11938538,0.12633
 947,-0.02974992,0.14198800,-0.00010457,-0.00011141,-0.00016387,0.00008
 231,-0.00000291,0.00011589,0.00001308,-0.00001065,0.00002102,0.0004897
 8,0.00027487,0.00016422,-0.00007719,-0.00008525,-0.00004363,-0.1458383
 1,0.10648295,0.06830939,-0.01363311,0.01736516,0.01146892,0.15455544,-
 0.00004087,-0.00002708,0.00004989,-0.00001884,-0.00000814,-0.00006108,
 -0.00000736,0.00000605,0.00001010,0.00005190,-0.00002847,0.00002924,-0
 .00000002,0.00000102,-0.00002095,0.11163065,-0.17712256,-0.08061928,0.
 00086525,-0.00211673,-0.00187263,-0.11867729,0.18219501,0.00025579,0.0
 0015674,-0.00012851,0.00002858,-0.00003721,0.00015008,-0.00003159,-0.0
 0000678,-0.00000308,-0.00092613,-0.00013430,-0.00042651,0.00012909,0.0
 0003234,0.00013867,0.06326651,-0.07101807,-0.09627923,-0.01016795,0.01
 192942,0.01014220,-0.08064226,0.08331814,0.11241230,-0.00011718,0.0000
 0227,-0.00015313,0.00001383,-0.00010533,0.00005258,-0.00006505,0.00004
 805,0.00005558,0.00042408,0.00009785,0.00000494,-0.00009451,0.00000757
 ,0.00001678,-0.11446407,-0.10652278,-0.02744865,-0.01222425,-0.0232280
 1,-0.00672347,0.01142067,0.01739878,0.00265391,0.11696760,-0.00036845,
 -0.00015968,0.00001467,0.00001020,0.00003451,-0.00004990,0.00002700,0.
 00002364,-0.00000317,0.00169202,0.00037653,0.00075476,-0.00027709,-0.0
 0007187,-0.00012434,-0.10852694,-0.24124194,-0.04427776,0.00373635,0.0
 0563997,0.00033188,-0.01036217,-0.01497635,-0.00390691,0.12219871,0.26
 356856,0.00019013,0.00012685,-0.00009265,-0.00000291,-0.00008426,0.000
 06886,-0.00003720,0.00000468,0.00003190,-0.00072751,-0.00031919,-0.000
 33622,0.00011948,0.00006762,0.00007159,-0.02898550,-0.05258650,-0.0587
 0400,-0.00771654,-0.01510414,-0.00112637,-0.00797466,-0.01043398,-0.00
 124807,0.02474452,0.03973552,0.06672042,-0.00495371,-0.00183267,-0.000
 57131,0.00017495,0.00017164,-0.00026183,0.00023716,0.00014687,0.000048
 10,0.01852532,0.00638932,0.00522973,-0.00276456,-0.00058703,-0.0009596
 7,-0.06866912,-0.01869584,0.02625958,0.01315893,0.01240906,-0.01687370
 ,-0.00740977,-0.00859901,0.02092748,-0.00295714,-0.00926624,0.02364057
 ,0.17523938,0.00529726,0.00205651,0.00072366,-0.00025147,-0.00031019,0
 .00031103,-0.00033119,-0.00006765,-0.00000879,-0.02773573,-0.00902798,
 -0.00914620,0.00365607,0.00124211,0.00106023,-0.00254906,-0.12728817,0
 .06230758,-0.00068420,-0.00353715,0.01372664,0.00721588,0.00935210,-0.
 02217946,-0.00856105,-0.01518391,0.03603695,-0.06870725,0.26617375,0.0
 0475690,0.00230289,0.00000259,-0.00022590,-0.00034408,0.00076222,-0.00
 017851,-0.00027369,-0.00002516,-0.02680042,-0.00759346,-0.00938339,0.0
 0363753,0.00114807,0.00151303,0.01186584,0.09184913,-0.16286098,0.0089
 2489,0.01707990,-0.03704110,0.00662575,0.00598863,-0.01774977,0.009469
 55,0.00966366,-0.00984908,-0.10899714,-0.05368402,0.31144755,0.0142917
 1,0.00159991,0.00428153,-0.00021452,-0.00023051,-0.00010901,-0.0005157
 0,0.00032041,-0.00000680,-0.14664931,-0.04312548,-0.04419650,0.0111594
 0,0.00344892,0.00390671,-0.02100273,0.01613378,0.02847799,0.00283830,-
 0.00007904,-0.00521831,0.00083598,-0.00272818,0.00400538,0.00193656,0.
 00351116,-0.00446251,-0.07532521,0.04110649,0.04472855,0.10995295,-0.0
 0363727,-0.00210286,-0.00002057,0.00015069,0.00031848,-0.00089069,-0.0
 0019861,0.00053286,-0.00003272,0.00050929,0.00476367,0.00183999,-0.002
 13589,-0.00102462,-0.00057174,0.00278850,0.00734772,-0.00902601,-0.001
 40926,-0.00057545,0.00213323,-0.00214484,0.00255936,0.00176243,-0.0013
 9765,0.00256477,0.00267590,0.07218375,-0.13415545,-0.07609390,-0.02925
 625,0.15479901,-0.00162088,-0.00200556,0.00045257,0.00035608,0.0001426
 3,-0.00001376,0.00006150,0.00030480,-0.00007762,-0.01077648,-0.0020086
 1,0.00105468,-0.00125217,-0.00039833,0.00061351,0.03062475,-0.03712481
 ,-0.03328527,-0.00009267,-0.00200038,0.00487992,0.00233819,0.00349787,
 -0.00662233,-0.00237900,-0.00149594,0.00433351,0.04520660,-0.04363749,
 -0.08836533,-0.04761705,0.10252102,0.14541087,-0.02643105,-0.00166980,
 -0.00866837,0.00115896,-0.00002993,0.00059494,0.00108994,-0.00044765,0
 .00024177,0.10425235,0.03701466,0.04181942,-0.02324437,-0.00727942,-0.
 00553994,0.00368491,0.00369927,-0.01538233,0.00104332,-0.00176319,0.00
 377153,-0.00009258,0.00013391,0.00018574,-0.00082039,-0.00216790,0.001
 20157,-0.04228512,0.04773634,0.04209893,0.09329383,-0.03130345,-0.0129
 2070,-0.09936429,0.00608457,0.00027713,0.00240528,0.00001814,0.0001709
 6,0.00017083,0.00072710,-0.00024999,0.00010374,0.02752006,-0.01502392,
 0.00743768,-0.00433998,-0.00084691,-0.00106408,0.00045125,0.00016206,-
 0.00270555,0.00001401,0.00007934,0.00082210,0.00003304,0.00017622,0.00
 000695,-0.00007106,-0.00060388,-0.00001347,0.01619199,0.00859233,0.008
 60103,0.00413406,-0.03494664,-0.01767548,-0.03705594,0.05581642,-0.013
 00512,-0.00068850,-0.00498117,-0.00015758,-0.00012794,-0.00010148,0.00
 049181,-0.00025230,0.00040793,0.03136399,0.00764459,-0.01440125,0.0089
 6076,0.00220705,-0.00096457,0.00467265,-0.00049229,-0.00168688,-0.0006
 8009,-0.00028075,0.00045376,-0.00025028,0.00018755,-0.00068525,-0.0003
 8466,-0.00041968,0.00005082,0.00832112,0.01131885,0.00842085,0.0103006
 6,-0.02162694,-0.02694941,-0.03928814,0.00822202,0.04536679,-0.2736401
 4,-0.04859038,-0.05417555,-0.01654442,-0.00359177,-0.00427412,-0.00093
 095,-0.00036512,0.00019865,-0.01265224,0.00178162,-0.00595877,0.000490
 59,0.00033326,-0.00016025,0.00032289,0.00003373,0.00003862,-0.00007419
 ,-0.00006886,-0.00005113,-0.00005783,0.00001353,-0.00001339,-0.0000426
 4,-0.00001704,0.00001064,-0.00038212,0.00044110,0.00024812,-0.00011613
 ,-0.00066945,-0.00030428,0.00132329,0.00158139,-0.00076559,0.30132194,
 -0.04252590,-0.05303612,-0.01108799,-0.00145768,-0.00119313,-0.0005975
 5,-0.02812777,-0.00511104,-0.00597968,0.02322064,0.00155528,0.00656465
 ,-0.00086644,0.00041600,-0.00053730,-0.00022442,-0.00035017,0.00078307
 ,-0.00004676,0.00005558,-0.00021198,0.00003039,0.00002638,-0.00010376,
 0.00006733,0.00010338,-0.00005523,0.00130343,-0.00131274,-0.00146891,-
 0.00212282,0.00146773,0.00083253,0.00343173,-0.00071744,0.00176266,0.0
 4883752,0.05699051,-0.05819650,-0.01339973,-0.05837863,0.02691268,0.00
 547701,0.00711670,-0.01525154,-0.00270892,-0.00419094,-0.01883312,-0.0
 0061288,-0.00714161,0.00099837,-0.00006635,0.00050123,0.00007311,0.000
 42458,-0.00116537,0.00018800,-0.00005608,0.00031909,0.00001469,-0.0000
 2846,0.00014059,0.00001705,-0.00011172,0.00008634,-0.00105377,0.001140
 36,0.00140326,0.00156931,-0.00152521,-0.00066872,-0.00226615,0.0013921
 0,-0.00084258,0.06484910,0.01037191,0.06229396,0.00136452,0.01557202,0
 .00635766,0.00008593,-0.00118020,-0.00033102,-0.00037811,0.00203615,-0
 .00178666,-0.05672721,0.01534939,0.00955029,0.00148926,0.01421208,0.00
 715749,0.00029529,0.00134813,-0.00261255,0.00005930,-0.00053941,0.0005
 8703,-0.00019491,-0.00003230,0.00041307,0.00007867,-0.00035024,0.00010
 542,-0.00248240,0.00473223,0.00525509,0.01142273,-0.00541746,-0.002687
 51,-0.01882485,-0.01566641,-0.00997715,0.00066571,-0.00097420,0.000573
 71,0.53511975,0.00187974,-0.02537723,-0.00938220,-0.00069003,0.0013423
 4,-0.00122784,0.00149261,-0.00199968,0.00232668,0.02389321,-0.18243075
 ,-0.04711828,-0.00143047,0.00221607,0.00140350,-0.00013476,-0.00037626
 ,0.00034447,-0.00020410,-0.00008371,-0.00002590,-0.00004598,0.00000357
 ,0.00002812,-0.00005502,0.00001663,-0.00005684,0.00060201,0.00063412,0
 .00017018,0.00467422,0.00070460,0.00111846,-0.00982337,-0.01012313,-0.
 00624673,-0.00063648,0.00146092,-0.00074203,-0.01151247,0.49517814,0.0
 0017524,0.01902838,0.01177036,-0.00022561,0.00057888,0.00093091,-0.002
 12035,0.00473238,-0.00244700,0.01292784,-0.04995129,-0.10988890,-0.000
 63335,-0.02763386,-0.01029986,0.00036387,-0.00023293,0.00067222,-0.000
 21685,0.00044138,-0.00024656,0.00008318,0.00000315,0.00004289,-0.00019
 290,0.00005560,-0.00034577,0.00007050,0.00049328,-0.00005521,0.0026865
 2,0.00038172,0.00027650,-0.00490687,-0.00615549,-0.00366593,0.00019389
 ,-0.00038187,0.00037075,-0.00124591,-0.04498928,0.55693297,0.00057416,
 0.00022580,0.00067690,0.00003494,0.00015240,-0.00021400,0.00032077,0.0
 0006572,-0.00032651,-0.00217286,-0.00024945,-0.00131963,-0.00009853,0.
 00001227,-0.00003480,-0.00008970,-0.00017010,0.00052180,-0.00001908,0.
 00009359,-0.00011422,-0.00000323,-0.00000980,-0.00002137,-0.00002783,0
 .00008152,-0.00008281,0.00007385,-0.00011930,-0.00032428,-0.00010282,0
 .00038502,0.00004031,0.00067163,-0.00021322,0.00027460,0.00030547,-0.0
 0032613,0.00016860,-0.10681266,0.08294130,-0.07775812,0.11257887,-0.00
 018763,-0.00450792,-0.00471439,-0.00017209,0.00036150,-0.00023670,0.00
 087000,-0.00130050,0.00104322,0.01310935,-0.02005400,0.02051658,-0.000
 43619,0.00114459,-0.00050699,0.00002659,-0.00007782,0.00037094,-0.0000
 5269,0.00000265,-0.00007871,-0.00001589,-0.00000017,-0.00002866,0.0000
 0615,0.00006216,-0.00008887,-0.00033270,0.00082135,0.00047975,0.000270
 96,-0.00036089,-0.00087922,0.00068323,-0.00032418,0.00063435,0.0001882
 3,0.00022360,-0.00006754,0.08122931,-0.15276791,0.10376914,-0.08952156
 ,0.16992105,-0.00021516,-0.00264846,-0.00104451,-0.00017247,-0.0003028
 3,0.00027069,0.00006740,-0.00075466,0.00061921,0.00773743,-0.00983893,
 0.01111891,0.00015583,0.00093923,0.00067765,-0.00008959,0.00017647,-0.
 00025917,0.00003233,-0.00006813,0.00006305,0.00005676,0.00000634,-0.00
 001219,0.00004569,-0.00004758,0.00005429,-0.00027059,-0.00064551,-0.00
 020825,-0.00031023,0.00038734,0.00014416,0.00052681,0.00004792,0.00035
 380,-0.00000361,0.00008821,-0.00014294,-0.07726987,0.10504557,-0.15145
 990,0.08610150,-0.11263908,0.16033313,-0.00023774,-0.00039239,0.000116
 74,0.00009245,0.00045910,-0.00017475,0.00014099,-0.00004751,-0.0003017
 0,-0.00193445,-0.00092699,0.00143263,0.00105875,0.00039015,-0.00019689
 ,-0.00045587,-0.00043330,0.00027388,-0.00011969,-0.00016572,-0.0000063
 5,-0.00002994,0.00001186,-0.00001608,0.00003374,0.00007457,-0.00000500
 ,0.00017102,-0.00011588,-0.00029174,-0.00036802,0.00036642,0.00026681,
 0.00091437,0.00015769,-0.00025327,-0.00008163,0.00008546,0.00006848,-0
 .11732700,-0.00834742,0.11744464,0.00865423,0.00029145,-0.01408306,0.1
 2503563,-0.00002472,0.00188945,-0.00074404,-0.00027435,-0.00016112,0.0
 0077346,-0.00037627,0.00031865,0.00013131,0.01625071,0.00206632,-0.028
 29101,0.00048818,-0.00553536,-0.00266977,-0.00047130,0.00028688,-0.000
 51186,-0.00010325,-0.00026628,0.00025427,0.00012342,-0.00001696,0.0000
 5960,0.00014389,-0.00005893,0.00007157,-0.00038176,0.00003995,0.000269
 19,-0.00004064,-0.00027897,-0.00006515,0.00076796,0.00038137,-0.000100
 00,-0.00005716,0.00001255,0.00006085,-0.00887911,-0.04944789,0.0190581
 4,-0.01218384,-0.00155850,0.01652448,0.01091325,0.05386280,-0.00114772
 ,0.00063705,0.00084119,0.00028777,-0.00057381,0.00068984,-0.00026271,0
 .00006666,0.00020143,0.00751934,-0.00047725,-0.01460847,0.00036599,-0.
 00295803,0.00036456,-0.00030655,0.00014789,-0.00027962,0.00015725,-0.0
 0024814,0.00027568,-0.00006229,-0.00003824,0.00004295,0.00014259,-0.00
 001398,0.00014813,-0.00012490,0.00111452,0.00086160,0.00055050,-0.0009
 0302,-0.00057359,-0.00009123,0.00011256,-0.00027860,-0.00005511,0.0001
 3920,-0.00002750,0.11624969,0.01830558,-0.23722603,0.01063980,0.000773
 83,-0.01602549,-0.12986840,-0.01574517,0.25925904,0.00021160,-0.000197
 99,-0.00000506,-0.00004664,0.00002873,0.00002035,0.00021072,-0.0001813
 6,0.00009717,0.00262895,-0.00107748,-0.00125079,0.00030169,-0.00051097
 ,-0.00031901,0.00016462,-0.00007564,0.00010019,-0.00000868,0.00016305,
 -0.00011252,0.00004417,0.00000779,-0.00004678,-0.00006209,0.00000453,-
 0.00001766,-0.00035146,-0.00113023,-0.00079317,-0.00143704,0.00118646,
 0.00075650,0.00363005,0.00043331,0.00037630,0.00009239,-0.00030438,0.0
 0016798,-0.24783404,-0.08260299,-0.04664574,-0.01388722,-0.00595652,-0
 .00230918,-0.01554684,-0.00589500,-0.00399404,0.27188982,0.00008641,0.
 00209439,-0.00006033,-0.00010856,-0.00003430,-0.00010649,0.00044353,0.
 00031758,-0.00011648,-0.02432145,-0.01709630,-0.00832898,0.00086549,0.
 00081476,0.00036020,0.00015842,0.00032568,-0.00069606,0.00003210,-0.00
 010952,0.00013464,-0.00006932,-0.00002323,0.00012142,-0.00002971,-0.00
 009358,0.00002338,-0.00099557,0.00197102,0.00190563,0.00238301,-0.0016
 1333,-0.00112632,-0.00192645,-0.00281973,-0.00174196,0.00078589,-0.000
 59129,0.00045211,-0.08992754,-0.07894984,-0.01919731,0.01883577,0.0084
 1500,0.00372964,-0.00232074,-0.00153396,-0.00033966,0.09610870,0.08892
 665,-0.00002539,0.00057682,0.00007339,0.00010119,0.00000096,0.00002238
 ,0.00009324,0.00005015,-0.00012474,-0.01163593,-0.00803323,-0.00498953
 ,0.00072151,0.00050314,0.00038532,-0.00008918,0.00040502,-0.00078264,0
 .00014577,-0.00022251,0.00023635,-0.00006102,-0.00001627,0.00008526,0.
 00007863,-0.00010512,0.00013630,-0.00059078,0.00106838,0.00112714,0.00
 141325,-0.00101083,-0.00060969,-0.00137700,-0.00170813,-0.00049686,0.0
 0022279,-0.00011793,0.00032637,-0.05033880,-0.01895346,-0.05536144,-0.
 01822776,-0.00834765,-0.00448243,0.02559404,0.01092411,0.00633488,0.05
 397545,0.02498656,0.05811995\\0.00000054,-0.00000008,-0.00000180,-0.00
 000134,0.00000039,0.00000036,-0.00000007,0.00000012,-0.00000027,-0.000
 00022,-0.00000129,-0.00000148,-0.00000113,0.00000079,-0.00000077,-0.00
 000195,-0.00000100,0.00000370,0.00000306,0.00000151,0.00000056,-0.0000
 0086,-0.00000070,-0.00000057,0.00000102,-0.00000040,-0.00000020,-0.000
 00935,0.00003199,0.00001481,0.00001580,-0.00003221,-0.00001689,0.00000
 195,0.00000452,-0.00000072,0.00000008,-0.00000054,-0.00000002,-0.00000
 339,-0.00000232,0.00000063,0.00000055,0.00000055,-0.00000057,-0.000003
 87,-0.00000173,0.00000201,-0.00000084,0.00000040,0.00000120\\\@


 Statistics are no substitute for judgment.
                            -- Henry Clay
 Job cpu time:       2 days  1 hours 57 minutes 34.0 seconds.
 Elapsed time:       0 days  1 hours 17 minutes 37.9 seconds.
 File lengths (MBytes):  RWF=  75938 Int=      0 D2E=      0 Chk=     18 Scr=      1
 Normal termination of Gaussian 16 at Fri Jun  7 19:22:40 2019.
