 Entering Gaussian System, Link 0=g16
 Initial command:
 /ichec/packages/gaussian/16b01/l1.exe "/localscratch/341085/Gau-55563.inp" -scrdir="/localscratch/341085/"
 Entering Link 1 = /ichec/packages/gaussian/16b01/l1.exe PID=     55767.
  
 Copyright (c) 1988-2017, Gaussian, Inc.  All Rights Reserved.
  
 This is part of the Gaussian(R) 16 program.  It is based on
 the Gaussian(R) 09 system (copyright 2009, Gaussian, Inc.),
 the Gaussian(R) 03 system (copyright 2003, Gaussian, Inc.),
 the Gaussian(R) 98 system (copyright 1998, Gaussian, Inc.),
 the Gaussian(R) 94 system (copyright 1995, Gaussian, Inc.),
 the Gaussian 92(TM) system (copyright 1992, Gaussian, Inc.),
 the Gaussian 90(TM) system (copyright 1990, Gaussian, Inc.),
 the Gaussian 88(TM) system (copyright 1988, Gaussian, Inc.),
 the Gaussian 86(TM) system (copyright 1986, Carnegie Mellon
 University), and the Gaussian 82(TM) system (copyright 1983,
 Carnegie Mellon University). Gaussian is a federally registered
 trademark of Gaussian, Inc.
  
 This software contains proprietary and confidential information,
 including trade secrets, belonging to Gaussian, Inc.
  
 This software is provided under written license and may be
 used, copied, transmitted, or stored only in accord with that
 written license.
  
 The following legend is applicable only to US Government
 contracts under FAR:
  
                    RESTRICTED RIGHTS LEGEND
  
 Use, reproduction and disclosure by the US Government is
 subject to restrictions as set forth in subparagraphs (a)
 and (c) of the Commercial Computer Software - Restricted
 Rights clause in FAR 52.227-19.
  
 Gaussian, Inc.
 340 Quinnipiac St., Bldg. 40, Wallingford CT 06492
  
  
 ---------------------------------------------------------------
 Warning -- This program may not be used in any manner that
 competes with the business of Gaussian, Inc. or will provide
 assistance to any competitor of Gaussian, Inc.  The licensee
 of this program is prohibited from giving any competitor of
 Gaussian, Inc. access to this program.  By using this program,
 the user acknowledges that Gaussian, Inc. is engaged in the
 business of creating and licensing software in the field of
 computational chemistry and represents and warrants to the
 licensee that it is not a competitor of Gaussian, Inc. and that
 it will not use this program in any manner prohibited above.
 ---------------------------------------------------------------
  

 Cite this work as:
 Gaussian 16, Revision B.01,
 M. J. Frisch, G. W. Trucks, H. B. Schlegel, G. E. Scuseria, 
 M. A. Robb, J. R. Cheeseman, G. Scalmani, V. Barone, 
 G. A. Petersson, H. Nakatsuji, X. Li, M. Caricato, A. V. Marenich, 
 J. Bloino, B. G. Janesko, R. Gomperts, B. Mennucci, H. P. Hratchian, 
 J. V. Ortiz, A. F. Izmaylov, J. L. Sonnenberg, D. Williams-Young, 
 F. Ding, F. Lipparini, F. Egidi, J. Goings, B. Peng, A. Petrone, 
 T. Henderson, D. Ranasinghe, V. G. Zakrzewski, J. Gao, N. Rega, 
 G. Zheng, W. Liang, M. Hada, M. Ehara, K. Toyota, R. Fukuda, 
 J. Hasegawa, M. Ishida, T. Nakajima, Y. Honda, O. Kitao, H. Nakai, 
 T. Vreven, K. Throssell, J. A. Montgomery, Jr., J. E. Peralta, 
 F. Ogliaro, M. J. Bearpark, J. J. Heyd, E. N. Brothers, K. N. Kudin, 
 V. N. Staroverov, T. A. Keith, R. Kobayashi, J. Normand, 
 K. Raghavachari, A. P. Rendell, J. C. Burant, S. S. Iyengar, 
 J. Tomasi, M. Cossi, J. M. Millam, M. Klene, C. Adamo, R. Cammi, 
 J. W. Ochterski, R. L. Martin, K. Morokuma, O. Farkas, 
 J. B. Foresman, and D. J. Fox, Gaussian, Inc., Wallingford CT, 2016.
 
 ******************************************
 Gaussian 16:  ES64L-G16RevB.01 20-Dec-2017
                 5-Jun-2019 
 ******************************************
 %mem=80GB
 %nproc=40
 Will use up to   40 processors via shared memory.
 ----------------------------------------------------------------------
 # opt=(calcfc,ts,noeigentest,maxcyc=500) freq=noraman uB2PLYPD3/cc-pvt
 z
 ----------------------------------------------------------------------
 1/5=1,6=500,10=4,11=1,18=20,38=1/1,3;
 2/9=110,12=2,17=6,18=5,40=1/2;
 3/5=16,6=1,11=2,25=1,30=1,71=2,74=-60,116=2,140=1/1,2,3;
 4//1;
 5/5=2,38=5/2;
 8/6=3,8=1,10=1,19=11,30=-1/1;
 9/15=3,16=-3/6;
 11/6=1,8=1,15=11,17=12,24=-1,27=1,28=-2,29=300,32=6,42=3/1,2,10;
 10/6=2,21=1/2;
 8/6=4,8=1,10=1,19=11,30=-1/11,4;
 10/5=1,20=4/2;
 11/12=2,14=11,16=1,17=2,28=-2,42=3,76=2/2,10,12;
 6/7=2,8=2,9=2,10=2/1;
 7/10=1,12=2,25=1,44=2/1,2,3,16;
 1/5=1,6=500,10=4,11=1,18=20/3(2);
 2/9=110/2;
 99//99;
 2/9=110/2;
 3/5=16,6=1,11=2,25=1,30=1,71=1,74=-60,116=2/1,2,3;
 4/5=5,16=3,69=1/1;
 5/5=2,38=5/2;
 8/6=4,10=1/1;
 9/15=2,16=-3/6;
 10/5=1/2;
 7/12=2/1,2,3,16;
 1/5=1,6=500,11=1,18=20/3(-8);
 2/9=110/2;
 6/7=2,8=2,9=2,10=2/1;
 99/9=10/99;
 -------------------
 Title Card Required
 -------------------
 Symbolic Z-matrix:
 Charge =  0 Multiplicity = 2
 C                    -1.81332   0.77139   0.31481 
 H                    -2.81397   1.19466   0.17994 
 H                    -1.68109   0.5618    1.37539 
 H                    -1.0922    1.53802   0.0331 
 C                    -1.64948  -0.47108  -0.50777 
 H                    -2.26343  -1.31957  -0.21894 
 H                    -1.59719  -0.33597  -1.58452 
 C                     1.74994   0.68176  -0.47262 
 H                     1.00271   0.90592  -1.23904 
 H                     2.17034   1.6065   -0.08165 
 H                     2.53502   0.05673  -0.8975 
 O                     1.14645   0.03583   0.62908 
 O                     0.65766  -1.18213   0.19739 
 H                    -0.41589  -0.93011  -0.18509 
 
 Add virtual bond connecting atoms H14        and O13        Dist= 2.21D+00.
 Add virtual bond connecting atoms H14        and C5         Dist= 2.56D+00.

 GradGradGradGradGradGradGradGradGradGradGradGradGradGradGradGradGradGrad
 Berny optimization.
 Initialization pass.
                           ----------------------------
                           !    Initial Parameters    !
                           ! (Angstroms and Degrees)  !
 --------------------------                            --------------------------
 ! Name  Definition              Value          Derivative Info.                !
 --------------------------------------------------------------------------------
 ! R1    R(1,2)                  1.0948         calculate D2E/DX2 analytically  !
 ! R2    R(1,3)                  1.0891         calculate D2E/DX2 analytically  !
 ! R3    R(1,4)                  1.0895         calculate D2E/DX2 analytically  !
 ! R4    R(1,5)                  1.4991         calculate D2E/DX2 analytically  !
 ! R5    R(5,6)                  1.0864         calculate D2E/DX2 analytically  !
 ! R6    R(5,7)                  1.0865         calculate D2E/DX2 analytically  !
 ! R7    R(5,14)                 1.3552         calculate D2E/DX2 analytically  !
 ! R8    R(8,9)                  1.0936         calculate D2E/DX2 analytically  !
 ! R9    R(8,10)                 1.0885         calculate D2E/DX2 analytically  !
 ! R10   R(8,11)                 1.0897         calculate D2E/DX2 analytically  !
 ! R11   R(8,12)                 1.4125         calculate D2E/DX2 analytically  !
 ! R12   R(12,13)                1.3816         calculate D2E/DX2 analytically  !
 ! R13   R(13,14)                1.1672         calculate D2E/DX2 analytically  !
 ! A1    A(2,1,3)              107.7767         calculate D2E/DX2 analytically  !
 ! A2    A(2,1,4)              107.5199         calculate D2E/DX2 analytically  !
 ! A3    A(2,1,5)              110.6542         calculate D2E/DX2 analytically  !
 ! A4    A(3,1,4)              107.8682         calculate D2E/DX2 analytically  !
 ! A5    A(3,1,5)              111.1972         calculate D2E/DX2 analytically  !
 ! A6    A(4,1,5)              111.6523         calculate D2E/DX2 analytically  !
 ! A7    A(1,5,6)              116.0823         calculate D2E/DX2 analytically  !
 ! A8    A(1,5,7)              116.4882         calculate D2E/DX2 analytically  !
 ! A9    A(1,5,14)             104.4519         calculate D2E/DX2 analytically  !
 ! A10   A(6,5,7)              112.8183         calculate D2E/DX2 analytically  !
 ! A11   A(6,5,14)             100.7524         calculate D2E/DX2 analytically  !
 ! A12   A(7,5,14)             103.5503         calculate D2E/DX2 analytically  !
 ! A13   A(9,8,10)             109.9674         calculate D2E/DX2 analytically  !
 ! A14   A(9,8,11)             109.6676         calculate D2E/DX2 analytically  !
 ! A15   A(9,8,12)             110.39           calculate D2E/DX2 analytically  !
 ! A16   A(10,8,11)            110.4316         calculate D2E/DX2 analytically  !
 ! A17   A(10,8,12)            105.8649         calculate D2E/DX2 analytically  !
 ! A18   A(11,8,12)            110.4641         calculate D2E/DX2 analytically  !
 ! A19   A(8,12,13)            108.095          calculate D2E/DX2 analytically  !
 ! A20   A(12,13,14)           103.7366         calculate D2E/DX2 analytically  !
 ! A21   L(5,14,13,9,-1)       176.6878         calculate D2E/DX2 analytically  !
 ! A22   L(5,14,13,9,-2)       171.7616         calculate D2E/DX2 analytically  !
 ! D1    D(2,1,5,6)            -66.3681         calculate D2E/DX2 analytically  !
 ! D2    D(2,1,5,7)             70.2138         calculate D2E/DX2 analytically  !
 ! D3    D(2,1,5,14)          -176.2854         calculate D2E/DX2 analytically  !
 ! D4    D(3,1,5,6)             53.3774         calculate D2E/DX2 analytically  !
 ! D5    D(3,1,5,7)           -170.0408         calculate D2E/DX2 analytically  !
 ! D6    D(3,1,5,14)           -56.54           calculate D2E/DX2 analytically  !
 ! D7    D(4,1,5,6)            173.9104         calculate D2E/DX2 analytically  !
 ! D8    D(4,1,5,7)            -49.5077         calculate D2E/DX2 analytically  !
 ! D9    D(4,1,5,14)            63.9931         calculate D2E/DX2 analytically  !
 ! D10   D(1,5,13,12)          -23.0511         calculate D2E/DX2 analytically  !
 ! D11   D(6,5,13,12)         -143.0922         calculate D2E/DX2 analytically  !
 ! D12   D(7,5,13,12)           98.4233         calculate D2E/DX2 analytically  !
 ! D13   D(9,8,12,13)           64.1681         calculate D2E/DX2 analytically  !
 ! D14   D(10,8,12,13)        -176.8604         calculate D2E/DX2 analytically  !
 ! D15   D(11,8,12,13)         -57.2953         calculate D2E/DX2 analytically  !
 ! D16   D(8,12,13,14)         -87.8212         calculate D2E/DX2 analytically  !
 --------------------------------------------------------------------------------
 Trust Radius=3.00D-01 FncErr=1.00D-07 GrdErr=1.00D-07 EigMax=2.50D+02 EigMin=1.00D-04
 Number of steps in this run=    100 maximum allowed number of steps=    100.
 Search for a saddle point of order  1.
 GradGradGradGradGradGradGradGradGradGradGradGradGradGradGradGradGradGrad

                          Input orientation:                          
 ---------------------------------------------------------------------
 Center     Atomic      Atomic             Coordinates (Angstroms)
 Number     Number       Type             X           Y           Z
 ---------------------------------------------------------------------
      1          6           0       -1.813316    0.771386    0.314810
      2          1           0       -2.813965    1.194656    0.179941
      3          1           0       -1.681094    0.561803    1.375391
      4          1           0       -1.092199    1.538024    0.033099
      5          6           0       -1.649477   -0.471080   -0.507773
      6          1           0       -2.263434   -1.319571   -0.218937
      7          1           0       -1.597192   -0.335966   -1.584521
      8          6           0        1.749942    0.681756   -0.472617
      9          1           0        1.002709    0.905915   -1.239039
     10          1           0        2.170335    1.606495   -0.081650
     11          1           0        2.535016    0.056726   -0.897497
     12          8           0        1.146446    0.035832    0.629079
     13          8           0        0.657656   -1.182125    0.197394
     14          1           0       -0.415894   -0.930109   -0.185090
 ---------------------------------------------------------------------
                    Distance matrix (angstroms):
                    1          2          3          4          5
     1  C    0.000000
     2  H    1.094827   0.000000
     3  H    1.089146   1.764370   0.000000
     4  H    1.089543   1.761801   1.761123   0.000000
     5  C    1.499069   2.145614   2.148058   2.153973   0.000000
     6  H    2.204449   2.604520   2.533884   3.098574   1.086419
     7  H    2.209162   2.633755   3.094206   2.526569   1.086451
     8  C    3.650326   4.638766   3.898914   3.011098   3.589752
     9  H    3.219090   4.082141   3.762507   2.531114   3.076517
    10  H    4.089506   5.008122   4.248277   3.265269   4.369080
    11  H    4.570385   5.573810   4.816296   4.027026   4.235616
    12  O    3.065941   4.150838   2.971298   2.761033   3.060487
    13  O    3.152094   4.207320   3.146222   3.238548   2.515096
    14  H    2.257825   3.224689   2.502326   2.568399   1.355197
                    6          7          8          9         10
     6  H    0.000000
     7  H    1.810021   0.000000
     8  C    4.491865   3.670885   0.000000
     9  H    4.081799   2.901915   1.093621   0.000000
    10  H    5.314040   4.497337   1.088452   1.787096   0.000000
    11  H    5.037833   4.207297   1.089737   1.784863   1.788961
    12  O    3.766103   3.544828   1.412501   2.065810   2.005110
    13  O    2.953809   2.995921   2.261870   2.557794   3.184724
    14  H    1.888447   1.925325   2.715074   2.548377   3.624036
                   11         12         13         14
    11  H    0.000000
    12  O    2.063734   0.000000
    13  O    2.501603   1.381552   0.000000
    14  H    3.192058   2.009184   1.167183   0.000000
 Stoichiometry    C3H9O2(2)
 Framework group  C1[X(C3H9O2)]
 Deg. of freedom    36
 Full point group                 C1      NOp   1
 Largest Abelian subgroup         C1      NOp   1
 Largest concise Abelian subgroup C1      NOp   1
                         Standard orientation:                         
 ---------------------------------------------------------------------
 Center     Atomic      Atomic             Coordinates (Angstroms)
 Number     Number       Type             X           Y           Z
 ---------------------------------------------------------------------
      1          6           0       -1.813316   -0.771386   -0.314810
      2          1           0       -2.813965   -1.194656   -0.179941
      3          1           0       -1.681094   -0.561803   -1.375391
      4          1           0       -1.092199   -1.538024   -0.033099
      5          6           0       -1.649477    0.471080    0.507773
      6          1           0       -2.263434    1.319571    0.218937
      7          1           0       -1.597192    0.335966    1.584521
      8          6           0        1.749942   -0.681756    0.472617
      9          1           0        1.002709   -0.905915    1.239039
     10          1           0        2.170335   -1.606495    0.081650
     11          1           0        2.535016   -0.056726    0.897497
     12          8           0        1.146446   -0.035832   -0.629079
     13          8           0        0.657656    1.182125   -0.197394
     14          1           0       -0.415894    0.930109    0.185090
 ---------------------------------------------------------------------
 Rotational constants (GHZ):           7.3711419           2.6664609           2.3314662
 Standard basis: CC-pVTZ (5D, 7F)
 There are   310 symmetry adapted cartesian basis functions of A   symmetry.
 There are   276 symmetry adapted basis functions of A   symmetry.
   276 basis functions,   413 primitive gaussians,   310 cartesian basis functions
    22 alpha electrons       21 beta electrons
       nuclear repulsion energy       192.6230294882 Hartrees.
 NAtoms=   14 NActive=   14 NUniq=   14 SFac= 1.00D+00 NAtFMM=   60 NAOKFM=F Big=F
 Integral buffers will be    131072 words long.
 Raffenetti 2 integral format.
 Two-electron integral symmetry is turned on.
 Nuclear repulsion after empirical dispersion term =      192.6169612113 Hartrees.
 One-electron integrals computed using PRISM.
 NBasis=   276 RedAO= T EigKep=  9.45D-04  NBF=   276
 NBsUse=   276 1.00D-06 EigRej= -1.00D+00 NBFU=   276
 ExpMin= 1.03D-01 ExpMax= 1.53D+04 ExpMxC= 5.22D+02 IAcc=3 IRadAn=         5 AccDes= 0.00D+00
 Harris functional with IExCor=  419 and IRadAn=       5 diagonalized for initial guess.
 HarFok:  IExCor=  419 AccDes= 0.00D+00 IRadAn=         5 IDoV= 1 UseB2=F ITyADJ=14
 ICtDFT=  3500011 ScaDFX=  1.000000  1.000000  1.000000  1.000000
 FoFCou: FMM=F IPFlag=           0 FMFlag=      100000 FMFlg1=           0
         NFxFlg=           0 DoJE=T BraDBF=F KetDBF=T FulRan=T
         wScrn=  0.000000 ICntrl=       500 IOpCl=  0 I1Cent=   200000004 NGrid=           0
         NMat0=    1 NMatS0=      1 NMatT0=    0 NMatD0=    1 NMtDS0=    0 NMtDT0=    0
 Petite list used in FoFCou.
 Initial guess <Sx>= 0.0000 <Sy>= 0.0000 <Sz>= 0.5000 <S**2>= 0.7500 S= 0.5000
 Requested convergence on RMS density matrix=1.00D-08 within 128 cycles.
 Requested convergence on MAX density matrix=1.00D-06.
 Requested convergence on             energy=1.00D-06.
 No special actions if energy rises.
 Integral accuracy reduced to 1.0D-05 until final iterations.
 Initial convergence to 1.0D-05 achieved.  Increase integral accuracy.
 SCF Done:  E(UB2PLYPD3) =  -269.557567588     A.U. after   19 cycles
            NFock= 19  Conv=0.30D-08     -V/T= 2.0041
 <Sx>= 0.0000 <Sy>= 0.0000 <Sz>= 0.5000 <S**2>= 0.7682 S= 0.5091
 <L.S>=  0.00000000000    
 Annihilation of the first spin contaminant:
 S**2 before annihilation     0.7682,   after     0.7501
 DoSCS=T DFT=T ScalE2(SS,OS)=  0.270000  0.270000
 ExpMin= 1.03D-01 ExpMax= 1.53D+04 ExpMxC= 5.22D+02 IAcc=3 IRadAn=         5 AccDes= 0.00D+00
 HarFok:  IExCor=  205 AccDes= 0.00D+00 IRadAn=         5 IDoV=-2 UseB2=F ITyADJ=14
 ICtDFT= 12500011 ScaDFX=  1.000000  1.000000  1.000000  1.000000
 Range of M.O.s used for correlation:     6   276
 NBasis=   276 NAE=    22 NBE=    21 NFC=     5 NFV=     0
 NROrb=    271 NOA=    17 NOB=    16 NVA=   254 NVB=   255

 **** Warning!!: The largest alpha MO coefficient is  0.11563706D+02


 **** Warning!!: The largest beta MO coefficient is  0.11565526D+02

 DoSCS=T DFT=T ScalE2(SS,OS)=  0.270000  0.270000
 Disk-based method using ON**2 memory for 17 occupieds at a time.
 Permanent disk used for amplitudes=    44146851 words.
 Estimated scratch disk usage=   904799152 words.
 Actual    scratch disk usage=   875092912 words.
 JobTyp=2 Pass  1:  I=   6 to  22 NPSUse= 40 ParTrn=T ParDer=T DoDerP=T.
 (rs|ai) integrals will be sorted in core.
 Actual    scratch disk usage=   875092912 words.
 JobTyp=3 Pass  1:  I=   6 to  21 NPSUse= 40 ParTrn=T ParDer=T DoDerP=T.
 (rs|ai) integrals will be sorted in core.
 Spin components of T(2) and E(2):
     alpha-alpha T2 =       0.5364076024D-01 E2=     -0.4064130778D-01
     alpha-beta  T2 =       0.3324121065D+00 E2=     -0.2550693889D+00
     beta-beta   T2 =       0.5852127492D-01 E2=     -0.3932982805D-01
 (S**2,0)=  0.76819D+00           (S**2,1)=  0.74254D+00
 Scaling Projection term by:   0.270000
 E(PUHF)=      -0.26956377789D+03        E(PMP2)=      -0.26989310823D+03
 E2(B2PLYPD3) =    -0.3350405248D+00 E(B2PLYPD3) =    -0.26989260811288D+03
 G2DrvN: will do    15 centers at a time, making    1 passes.
 Calling FoFCou, ICntrl=  3107 FMM=F I1Cent=   0 AccDes= 0.00D+00.
 End of G2Drv F.D. properties file   721 does not exist.
 End of G2Drv F.D. properties file   722 does not exist.
 End of G2Drv F.D. properties file   788 does not exist.
          IDoAtm=11111111111111
          Differentiating once with respect to electric field.
                with respect to dipole field.
          Differentiating once with respect to nuclear coordinates.
 Keep R1 and R2 ints in memory in canonical form, NReq=1506835981.
          There are    45 degrees of freedom in the 1st order CPHF.  IDoFFX=6 NUNeed=    45.
     42 vectors produced by pass  0 Test12= 2.43D-14 2.22D-09 XBig12= 6.52D+01 5.09D+00.
 AX will form    42 AO Fock derivatives at one time.
     42 vectors produced by pass  1 Test12= 2.43D-14 2.22D-09 XBig12= 4.23D+00 2.97D-01.
     42 vectors produced by pass  2 Test12= 2.43D-14 2.22D-09 XBig12= 2.79D-01 1.13D-01.
     42 vectors produced by pass  3 Test12= 2.43D-14 2.22D-09 XBig12= 4.01D-03 6.06D-03.
     42 vectors produced by pass  4 Test12= 2.43D-14 2.22D-09 XBig12= 4.44D-05 8.81D-04.
     42 vectors produced by pass  5 Test12= 2.43D-14 2.22D-09 XBig12= 6.65D-07 1.05D-04.
     42 vectors produced by pass  6 Test12= 2.43D-14 2.22D-09 XBig12= 6.14D-09 8.24D-06.
     14 vectors produced by pass  7 Test12= 2.43D-14 2.22D-09 XBig12= 3.31D-11 6.18D-07.
      3 vectors produced by pass  8 Test12= 2.43D-14 2.22D-09 XBig12= 2.18D-13 5.23D-08.
      2 vectors produced by pass  9 Test12= 2.43D-14 2.22D-09 XBig12= 1.67D-15 3.57D-09.
 InvSVY:  IOpt=1 It=  1 EMax= 3.55D-15
 Solved reduced A of dimension   313 with    45 vectors.
 End of Minotr F.D. properties file   721 does not exist.
 End of Minotr F.D. properties file   722 does not exist.
 End of Minotr F.D. properties file   788 does not exist.
 MDV= 10737418240.
 DoSCS=T DFT=T ScalE2(SS,OS)=  0.270000  0.270000
 Form MO integral derivatives with frozen-active canonical formalism.
 Discarding MO integrals.
 Reordered first order wavefunction length =    178086595
 In DefCFB: NBatch=  1 ICI= 22 ICA=255 LFMax= 64
            Large arrays: LIAPS=  3745132320 LIARS=   852159000 words.
 In DefCFB: NBatch=  1 ICI= 22 ICA=255 LFMax= 64
            Large arrays: LIAPS=  3745132320 LIARS=   852159000 words.
 Semi-Direct transformation.
 ModeAB=           4 MOrb=            22 LenV=   10735089081
 LASXX=    219513657 LTotXX=   219513657 LenRXX=   442791723
 LTotAB=   223278066 MaxLAS=   282675888 LenRXY=           0
 NonZer=   662305380 LenScr=   997354496 LnRSAI=   282675888
 LnScr1=   425676800 LExtra=           0 Total=   2148498907
 MaxDsk=          -1 SrtSym=           T ITran=            4
 JobTyp=1 Pass  1:  I=   1 to  22.
 (rs|ai) integrals will be sorted in core.
 ModeAB=           4 MOrb=            21 LenV=   10735089081
 LASXX=    210045255 LTotXX=   210045255 LenRXX=   390947865
 LTotAB=   180902610 MaxLAS=   269826984 LenRXY=           0
 NonZer=   600993120 LenScr=   905025536 LnRSAI=   269826984
 LnScr1=   406328320 LExtra=           0 Total=   1972128705
 MaxDsk=          -1 SrtSym=           T ITran=            4
 JobTyp=2 Pass  1:  I=   1 to  21.
 (rs|ai) integrals will be sorted in core.
 SymMOI:  orbitals are not symmetric.
 DoSCS=T DFT=T ScalE2(SS,OS)=  0.270000  0.270000
 Spin components of T(2) and E(2):
     alpha-alpha T2 =       0.5364076024D-01 E2=     -0.4064130778D-01
     alpha-beta  T2 =       0.3324121065D+00 E2=     -0.2550693889D+00
     beta-beta   T2 =       0.5852127492D-01 E2=     -0.3932982805D-01
 E2(B2PLYPD3) =    -0.3350405248D+00 E(B2PLYPD3) =    -0.26989260811288D+03
 (S**2,0)=  0.76819D+00           (S**2,1)=  0.74254D+00
 Scaling Projection term by:   0.270000
 E(PUHF)=      -0.26956377789D+03        E(PMP2)=      -0.26989310823D+03
          IDoAtm=11111111111111
          Differentiating once with respect to electric field.
                with respect to dipole field.
          Differentiating once with respect to nuclear coordinates.
 Keep R1 and R2 ints in memory in canonical form, NReq=1506972220.
          There are     1 degrees of freedom in the 1st order CPHF.  IDoFFX=0 NUNeed=     1.
 LinEq1:  Iter=  0 NonCon=     1 RMS=1.01D-03 Max=6.54D-02 NDo=     1
 AX will form     1 AO Fock derivatives at one time.
 LinEq1:  Iter=  1 NonCon=     1 RMS=3.30D-04 Max=8.44D-03 NDo=     1
 LinEq1:  Iter=  2 NonCon=     1 RMS=1.84D-04 Max=8.30D-03 NDo=     1
 LinEq1:  Iter=  3 NonCon=     1 RMS=7.40D-05 Max=1.02D-03 NDo=     1
 LinEq1:  Iter=  4 NonCon=     1 RMS=3.88D-05 Max=6.08D-04 NDo=     1
 LinEq1:  Iter=  5 NonCon=     1 RMS=2.76D-05 Max=8.08D-04 NDo=     1
 LinEq1:  Iter=  6 NonCon=     1 RMS=1.55D-05 Max=3.49D-04 NDo=     1
 LinEq1:  Iter=  7 NonCon=     1 RMS=5.26D-06 Max=8.15D-05 NDo=     1
 LinEq1:  Iter=  8 NonCon=     1 RMS=2.11D-06 Max=2.81D-05 NDo=     1
 LinEq1:  Iter=  9 NonCon=     1 RMS=9.73D-07 Max=1.87D-05 NDo=     1
 LinEq1:  Iter= 10 NonCon=     1 RMS=3.22D-07 Max=6.07D-06 NDo=     1
 LinEq1:  Iter= 11 NonCon=     1 RMS=9.84D-08 Max=2.24D-06 NDo=     1
 LinEq1:  Iter= 12 NonCon=     1 RMS=3.97D-08 Max=7.73D-07 NDo=     1
 LinEq1:  Iter= 13 NonCon=     1 RMS=1.63D-08 Max=2.58D-07 NDo=     1
 LinEq1:  Iter= 14 NonCon=     1 RMS=5.61D-09 Max=8.61D-08 NDo=     1
 LinEq1:  Iter= 15 NonCon=     1 RMS=1.57D-09 Max=2.59D-08 NDo=     1
 LinEq1:  Iter= 16 NonCon=     1 RMS=4.78D-10 Max=1.29D-08 NDo=     1
 LinEq1:  Iter= 17 NonCon=     1 RMS=1.58D-10 Max=6.26D-09 NDo=     1
 LinEq1:  Iter= 18 NonCon=     1 RMS=5.60D-11 Max=2.83D-09 NDo=     1
 LinEq1:  Iter= 19 NonCon=     0 RMS=1.74D-11 Max=7.59D-10 NDo=     1
 Linear equations converged to 1.000D-10 1.000D-09 after    19 iterations.
 End of Minotr F.D. properties file   721 does not exist.
 End of Minotr F.D. properties file   722 does not exist.
 End of Minotr F.D. properties file   788 does not exist.
 Symmetrizing basis deriv contribution to polar:
 IMax=3 JMax=2 DiffMx= 0.00D+00
 G2DrvN: will do    15 centers at a time, making    1 passes.
 Calling FoFCou, ICntrl=  3107 FMM=F I1Cent=   0 AccDes= 0.00D+00.
 End of G2Drv F.D. properties file   721 does not exist.
 End of G2Drv F.D. properties file   722 does not exist.
 End of G2Drv F.D. properties file   788 does not exist.
 DoSCS=T DFT=T ScalE2(SS,OS)=  0.270000  0.270000
 R2 and R3 integrals will be kept in memory, NReq=  2338810190.
 DD1Dir will call FoFMem   1 times, MxPair=      1366
 NAB=   462 NAA=   231 NBB=   210.
 Discarding MO integrals.

 **********************************************************************

            Population analysis using the SCF Density.

 **********************************************************************

 Orbital symmetries:
 Alpha Orbitals:
       Occupied  (A) (A) (A) (A) (A) (A) (A) (A) (A) (A) (A) (A)
                 (A) (A) (A) (A) (A) (A) (A) (A) (A) (A)
       Virtual   (A) (A) (A) (A) (A) (A) (A) (A) (A) (A) (A) (A)
                 (A) (A) (A) (A) (A) (A) (A) (A) (A) (A) (A) (A)
                 (A) (A) (A) (A) (A) (A) (A) (A) (A) (A) (A) (A)
                 (A) (A) (A) (A) (A) (A) (A) (A) (A) (A) (A) (A)
                 (A) (A) (A) (A) (A) (A) (A) (A) (A) (A) (A) (A)
                 (A) (A) (A) (A) (A) (A) (A) (A) (A) (A) (A) (A)
                 (A) (A) (A) (A) (A) (A) (A) (A) (A) (A) (A) (A)
                 (A) (A) (A) (A) (A) (A) (A) (A) (A) (A) (A) (A)
                 (A) (A) (A) (A) (A) (A) (A) (A) (A) (A) (A) (A)
                 (A) (A) (A) (A) (A) (A) (A) (A) (A) (A) (A) (A)
                 (A) (A) (A) (A) (A) (A) (A) (A) (A) (A) (A) (A)
                 (A) (A) (A) (A) (A) (A) (A) (A) (A) (A) (A) (A)
                 (A) (A) (A) (A) (A) (A) (A) (A) (A) (A) (A) (A)
                 (A) (A) (A) (A) (A) (A) (A) (A) (A) (A) (A) (A)
                 (A) (A) (A) (A) (A) (A) (A) (A) (A) (A) (A) (A)
                 (A) (A) (A) (A) (A) (A) (A) (A) (A) (A) (A) (A)
                 (A) (A) (A) (A) (A) (A) (A) (A) (A) (A) (A) (A)
                 (A) (A) (A) (A) (A) (A) (A) (A) (A) (A) (A) (A)
                 (A) (A) (A) (A) (A) (A) (A) (A) (A) (A) (A) (A)
                 (A) (A) (A) (A) (A) (A) (A) (A) (A) (A) (A) (A)
                 (A) (A) (A) (A) (A) (A) (A) (A) (A) (A) (A) (A)
                 (A) (A)
 Beta  Orbitals:
       Occupied  (A) (A) (A) (A) (A) (A) (A) (A) (A) (A) (A) (A)
                 (A) (A) (A) (A) (A) (A) (A) (A) (A)
       Virtual   (A) (A) (A) (A) (A) (A) (A) (A) (A) (A) (A) (A)
                 (A) (A) (A) (A) (A) (A) (A) (A) (A) (A) (A) (A)
                 (A) (A) (A) (A) (A) (A) (A) (A) (A) (A) (A) (A)
                 (A) (A) (A) (A) (A) (A) (A) (A) (A) (A) (A) (A)
                 (A) (A) (A) (A) (A) (A) (A) (A) (A) (A) (A) (A)
                 (A) (A) (A) (A) (A) (A) (A) (A) (A) (A) (A) (A)
                 (A) (A) (A) (A) (A) (A) (A) (A) (A) (A) (A) (A)
                 (A) (A) (A) (A) (A) (A) (A) (A) (A) (A) (A) (A)
                 (A) (A) (A) (A) (A) (A) (A) (A) (A) (A) (A) (A)
                 (A) (A) (A) (A) (A) (A) (A) (A) (A) (A) (A) (A)
                 (A) (A) (A) (A) (A) (A) (A) (A) (A) (A) (A) (A)
                 (A) (A) (A) (A) (A) (A) (A) (A) (A) (A) (A) (A)
                 (A) (A) (A) (A) (A) (A) (A) (A) (A) (A) (A) (A)
                 (A) (A) (A) (A) (A) (A) (A) (A) (A) (A) (A) (A)
                 (A) (A) (A) (A) (A) (A) (A) (A) (A) (A) (A) (A)
                 (A) (A) (A) (A) (A) (A) (A) (A) (A) (A) (A) (A)
                 (A) (A) (A) (A) (A) (A) (A) (A) (A) (A) (A) (A)
                 (A) (A) (A) (A) (A) (A) (A) (A) (A) (A) (A) (A)
                 (A) (A) (A) (A) (A) (A) (A) (A) (A) (A) (A) (A)
                 (A) (A) (A) (A) (A) (A) (A) (A) (A) (A) (A) (A)
                 (A) (A) (A) (A) (A) (A) (A) (A) (A) (A) (A) (A)
                 (A) (A) (A)
 The electronic state is 2-A.
 Alpha  occ. eigenvalues --  -19.78746 -19.78418 -10.66143 -10.63666 -10.61340
 Alpha  occ. eigenvalues --   -1.29016  -1.01927  -0.89003  -0.77935  -0.72680
 Alpha  occ. eigenvalues --   -0.61629  -0.56461  -0.55266  -0.53135  -0.50677
 Alpha  occ. eigenvalues --   -0.47960  -0.45934  -0.44305  -0.42720  -0.37407
 Alpha  occ. eigenvalues --   -0.36309  -0.29618
 Alpha virt. eigenvalues --    0.07378   0.10379   0.10929   0.13276   0.14640
 Alpha virt. eigenvalues --    0.15068   0.15648   0.17200   0.18396   0.21257
 Alpha virt. eigenvalues --    0.24917   0.28505   0.29598   0.29935   0.31290
 Alpha virt. eigenvalues --    0.32611   0.34081   0.38787   0.40879   0.45636
 Alpha virt. eigenvalues --    0.47746   0.49447   0.50557   0.51261   0.52188
 Alpha virt. eigenvalues --    0.52505   0.53645   0.54295   0.55711   0.55946
 Alpha virt. eigenvalues --    0.57163   0.60611   0.61177   0.61499   0.67439
 Alpha virt. eigenvalues --    0.68319   0.68922   0.72194   0.77970   0.79671
 Alpha virt. eigenvalues --    0.82066   0.87517   0.89646   0.93162   0.93503
 Alpha virt. eigenvalues --    0.94961   0.96231   1.00026   1.01272   1.04276
 Alpha virt. eigenvalues --    1.04505   1.06715   1.09678   1.12302   1.12450
 Alpha virt. eigenvalues --    1.14229   1.15288   1.16129   1.17380   1.18889
 Alpha virt. eigenvalues --    1.21622   1.23706   1.24714   1.25505   1.28643
 Alpha virt. eigenvalues --    1.30270   1.35412   1.36469   1.37519   1.39342
 Alpha virt. eigenvalues --    1.39564   1.41853   1.44965   1.48671   1.48806
 Alpha virt. eigenvalues --    1.51682   1.55275   1.59134   1.61651   1.63820
 Alpha virt. eigenvalues --    1.66403   1.68511   1.74715   1.79794   1.87219
 Alpha virt. eigenvalues --    1.93292   2.02680   2.05294   2.12857   2.18039
 Alpha virt. eigenvalues --    2.21752   2.30063   2.30692   2.34613   2.37740
 Alpha virt. eigenvalues --    2.42464   2.45014   2.45508   2.48963   2.51953
 Alpha virt. eigenvalues --    2.58450   2.62960   2.63842   2.66347   2.70100
 Alpha virt. eigenvalues --    2.72885   2.75926   2.83465   2.84365   2.85130
 Alpha virt. eigenvalues --    2.88214   2.91446   2.92314   2.92877   2.96616
 Alpha virt. eigenvalues --    2.99581   3.01696   3.02884   3.03497   3.07473
 Alpha virt. eigenvalues --    3.07917   3.11359   3.12547   3.13432   3.14774
 Alpha virt. eigenvalues --    3.16117   3.18125   3.20167   3.21370   3.22284
 Alpha virt. eigenvalues --    3.24724   3.27015   3.29337   3.38459   3.40092
 Alpha virt. eigenvalues --    3.41606   3.42246   3.44097   3.44621   3.49068
 Alpha virt. eigenvalues --    3.50987   3.52010   3.53885   3.55996   3.57893
 Alpha virt. eigenvalues --    3.60067   3.60101   3.61921   3.63959   3.65088
 Alpha virt. eigenvalues --    3.66431   3.68163   3.76895   3.82163   3.83827
 Alpha virt. eigenvalues --    3.86924   3.88465   3.89625   3.91162   3.92336
 Alpha virt. eigenvalues --    3.94826   3.95372   3.96601   3.98810   4.02904
 Alpha virt. eigenvalues --    4.04382   4.08363   4.08636   4.11116   4.14198
 Alpha virt. eigenvalues --    4.15074   4.16889   4.18798   4.19976   4.21273
 Alpha virt. eigenvalues --    4.22680   4.25648   4.29025   4.30579   4.34345
 Alpha virt. eigenvalues --    4.35654   4.38241   4.39400   4.41199   4.42827
 Alpha virt. eigenvalues --    4.46292   4.51248   4.56904   4.61728   4.66380
 Alpha virt. eigenvalues --    4.68075   4.72337   4.79165   4.82189   4.87191
 Alpha virt. eigenvalues --    4.91901   4.94207   4.95945   4.97704   4.98624
 Alpha virt. eigenvalues --    5.00083   5.02206   5.06357   5.07420   5.12937
 Alpha virt. eigenvalues --    5.14499   5.25445   5.27019   5.30292   5.31818
 Alpha virt. eigenvalues --    5.35037   5.36884   5.37374   5.38500   5.38919
 Alpha virt. eigenvalues --    5.40449   5.41243   5.48050   5.51211   5.51823
 Alpha virt. eigenvalues --    5.58052   5.61677   5.63062   5.70680   5.79121
 Alpha virt. eigenvalues --    5.85998   5.94639   5.97585   6.01788   6.04412
 Alpha virt. eigenvalues --    6.07360   6.10229   6.11211   6.31128   6.32751
 Alpha virt. eigenvalues --    6.42324   6.45162   6.69060   6.75640   6.76846
 Alpha virt. eigenvalues --    6.84470   6.98401   7.07336   7.08553   7.17663
 Alpha virt. eigenvalues --    7.42855   7.45597   7.62212   7.74938   9.96022
 Alpha virt. eigenvalues --   10.87166  12.60692  13.45840  13.75961
  Beta  occ. eigenvalues --  -19.78552 -19.76772 -10.66155 -10.62432 -10.61398
  Beta  occ. eigenvalues --   -1.27068  -0.98999  -0.87025  -0.77434  -0.70373
  Beta  occ. eigenvalues --   -0.58166  -0.55306  -0.54901  -0.52447  -0.48715
  Beta  occ. eigenvalues --   -0.45471  -0.44569  -0.43443  -0.42360  -0.35214
  Beta  occ. eigenvalues --   -0.33376
  Beta virt. eigenvalues --   -0.04159   0.07515   0.10527   0.11265   0.13520
  Beta virt. eigenvalues --    0.15046   0.15183   0.15812   0.17435   0.18523
  Beta virt. eigenvalues --    0.21974   0.25331   0.29195   0.30015   0.30643
  Beta virt. eigenvalues --    0.31675   0.32857   0.34935   0.39375   0.41422
  Beta virt. eigenvalues --    0.45771   0.48464   0.50245   0.50882   0.51757
  Beta virt. eigenvalues --    0.52476   0.53548   0.54287   0.55278   0.56191
  Beta virt. eigenvalues --    0.57341   0.57763   0.61041   0.61744   0.62126
  Beta virt. eigenvalues --    0.67720   0.68488   0.69262   0.73271   0.78308
  Beta virt. eigenvalues --    0.80454   0.82257   0.87878   0.89758   0.93529
  Beta virt. eigenvalues --    0.93597   0.95276   0.96397   1.00397   1.01502
  Beta virt. eigenvalues --    1.04457   1.05425   1.06962   1.10168   1.12577
  Beta virt. eigenvalues --    1.12759   1.14764   1.15937   1.16540   1.17574
  Beta virt. eigenvalues --    1.18974   1.22195   1.23885   1.25042   1.26235
  Beta virt. eigenvalues --    1.29014   1.30661   1.35743   1.36676   1.37885
  Beta virt. eigenvalues --    1.39481   1.39646   1.42192   1.45412   1.48933
  Beta virt. eigenvalues --    1.49597   1.52535   1.55933   1.59345   1.62151
  Beta virt. eigenvalues --    1.64310   1.66854   1.68936   1.75574   1.80195
  Beta virt. eigenvalues --    1.89582   1.94300   2.03355   2.06282   2.13217
  Beta virt. eigenvalues --    2.20224   2.22032   2.30528   2.31632   2.35130
  Beta virt. eigenvalues --    2.38431   2.43072   2.45379   2.46019   2.49604
  Beta virt. eigenvalues --    2.52228   2.59358   2.63743   2.64484   2.67119
  Beta virt. eigenvalues --    2.70281   2.73581   2.75984   2.83771   2.85001
  Beta virt. eigenvalues --    2.86257   2.88704   2.91626   2.92481   2.93309
  Beta virt. eigenvalues --    2.97273   3.00176   3.02445   3.03206   3.03757
  Beta virt. eigenvalues --    3.08382   3.08613   3.11824   3.12707   3.13575
  Beta virt. eigenvalues --    3.15068   3.16384   3.18296   3.20446   3.22002
  Beta virt. eigenvalues --    3.23154   3.25196   3.27862   3.30732   3.38924
  Beta virt. eigenvalues --    3.41137   3.41768   3.42895   3.44854   3.45011
  Beta virt. eigenvalues --    3.49329   3.51069   3.52427   3.54200   3.56271
  Beta virt. eigenvalues --    3.58234   3.60315   3.60704   3.62393   3.64158
  Beta virt. eigenvalues --    3.65515   3.66569   3.68512   3.77149   3.82465
  Beta virt. eigenvalues --    3.84323   3.86993   3.88419   3.89708   3.91337
  Beta virt. eigenvalues --    3.92382   3.95131   3.95546   3.96895   3.99152
  Beta virt. eigenvalues --    4.03103   4.04355   4.08561   4.08797   4.11375
  Beta virt. eigenvalues --    4.14491   4.15120   4.17137   4.18997   4.20257
  Beta virt. eigenvalues --    4.21498   4.22937   4.26000   4.29400   4.30737
  Beta virt. eigenvalues --    4.34957   4.35941   4.38654   4.39695   4.41511
  Beta virt. eigenvalues --    4.43182   4.46776   4.51488   4.57895   4.62299
  Beta virt. eigenvalues --    4.66995   4.68986   4.72933   4.79639   4.82533
  Beta virt. eigenvalues --    4.87842   4.92204   4.94336   4.96642   4.98019
  Beta virt. eigenvalues --    4.98764   5.00274   5.02425   5.06604   5.07840
  Beta virt. eigenvalues --    5.13722   5.15577   5.26492   5.27338   5.30747
  Beta virt. eigenvalues --    5.32091   5.35505   5.37179   5.38070   5.38710
  Beta virt. eigenvalues --    5.39207   5.40798   5.41700   5.48348   5.51426
  Beta virt. eigenvalues --    5.52091   5.58783   5.62011   5.63527   5.71372
  Beta virt. eigenvalues --    5.79822   5.87516   5.94799   5.97875   6.02164
  Beta virt. eigenvalues --    6.05325   6.07876   6.10773   6.11942   6.31811
  Beta virt. eigenvalues --    6.34725   6.43277   6.46270   6.69900   6.77958
  Beta virt. eigenvalues --    6.79716   6.85656   7.00130   7.08561   7.10044
  Beta virt. eigenvalues --    7.19866   7.44422   7.46322   7.63809   7.75808
  Beta virt. eigenvalues --    9.97073  10.88114  12.61669  13.45843  13.76047
          Condensed to atoms (all electrons):
               1          2          3          4          5          6
     1  C    4.825765   0.402459   0.404200   0.408876   0.314061  -0.028505
     2  H    0.402459   0.596537  -0.031022  -0.035024  -0.036883  -0.004206
     3  H    0.404200  -0.031022   0.565029  -0.026068  -0.031878  -0.004154
     4  H    0.408876  -0.035024  -0.026068   0.588764  -0.034639   0.006115
     5  C    0.314061  -0.036883  -0.031878  -0.034639   5.138183   0.402522
     6  H   -0.028505  -0.004206  -0.004154   0.006115   0.402522   0.543936
     7  H   -0.038737  -0.002751   0.006396  -0.004855   0.401290  -0.030068
     8  C   -0.002715  -0.000042   0.000129  -0.001420  -0.002874   0.000104
     9  H   -0.001376  -0.000152   0.000186  -0.002939   0.000870  -0.000187
    10  H   -0.000291  -0.000015  -0.000141   0.000458   0.000403   0.000006
    11  H    0.000594   0.000017  -0.000018   0.000226  -0.000857   0.000017
    12  O    0.006966   0.000527  -0.000165   0.001995  -0.000579   0.000459
    13  O   -0.006064  -0.000278   0.002958   0.000540  -0.076742   0.000177
    14  H   -0.008698   0.002952  -0.002932  -0.004787   0.223700  -0.009181
               7          8          9         10         11         12
     1  C   -0.038737  -0.002715  -0.001376  -0.000291   0.000594   0.006966
     2  H   -0.002751  -0.000042  -0.000152  -0.000015   0.000017   0.000527
     3  H    0.006396   0.000129   0.000186  -0.000141  -0.000018  -0.000165
     4  H   -0.004855  -0.001420  -0.002939   0.000458   0.000226   0.001995
     5  C    0.401290  -0.002874   0.000870   0.000403  -0.000857  -0.000579
     6  H   -0.030068   0.000104  -0.000187   0.000006   0.000017   0.000459
     7  H    0.561719   0.000148  -0.000740  -0.000071  -0.000026   0.000076
     8  C    0.000148   4.614729   0.391847   0.396231   0.413332   0.304273
     9  H   -0.000740   0.391847   0.695734  -0.038689  -0.056824  -0.054101
    10  H   -0.000071   0.396231  -0.038689   0.590712  -0.025732  -0.025900
    11  H   -0.000026   0.413332  -0.056824  -0.025732   0.602712  -0.037892
    12  O    0.000076   0.304273  -0.054101  -0.025900  -0.037892   7.945294
    13  O    0.000163  -0.047715  -0.003957   0.006985   0.005665   0.066614
    14  H   -0.007995   0.001368   0.004716  -0.000631   0.000892  -0.028375
              13         14
     1  C   -0.006064  -0.008698
     2  H   -0.000278   0.002952
     3  H    0.002958  -0.002932
     4  H    0.000540  -0.004787
     5  C   -0.076742   0.223700
     6  H    0.000177  -0.009181
     7  H    0.000163  -0.007995
     8  C   -0.047715   0.001368
     9  H   -0.003957   0.004716
    10  H    0.006985  -0.000631
    11  H    0.005665   0.000892
    12  O    0.066614  -0.028375
    13  O    8.072248   0.195293
    14  H    0.195293   0.424824
          Atomic-Atomic Spin Densities.
               1          2          3          4          5          6
     1  C   -0.033097   0.009320   0.003867   0.002671  -0.022913   0.000844
     2  H    0.009320   0.063925  -0.006579  -0.005193  -0.016041  -0.002117
     3  H    0.003867  -0.006579   0.011700   0.001983  -0.005467   0.001156
     4  H    0.002671  -0.005193   0.001983   0.008730  -0.003832   0.000118
     5  C   -0.022913  -0.016041  -0.005467  -0.003832   0.684682   0.003127
     6  H    0.000844  -0.002117   0.001156   0.000118   0.003127  -0.022525
     7  H    0.001981  -0.002463   0.000374   0.000999   0.000947   0.003719
     8  C   -0.000608   0.000099  -0.000104  -0.000496   0.001463  -0.000061
     9  H    0.001284  -0.000317   0.000250   0.001265  -0.006670   0.000204
    10  H   -0.000058   0.000011  -0.000007  -0.000090   0.000166  -0.000003
    11  H   -0.000183   0.000019  -0.000037  -0.000131   0.001383  -0.000030
    12  O   -0.003051   0.000411  -0.001280  -0.001741   0.014996  -0.000381
    13  O    0.006617  -0.000839   0.001848   0.001222  -0.089674   0.002783
    14  H    0.001174   0.000746  -0.001030  -0.000100   0.060352   0.001971
               7          8          9         10         11         12
     1  C    0.001981  -0.000608   0.001284  -0.000058  -0.000183  -0.003051
     2  H   -0.002463   0.000099  -0.000317   0.000011   0.000019   0.000411
     3  H    0.000374  -0.000104   0.000250  -0.000007  -0.000037  -0.001280
     4  H    0.000999  -0.000496   0.001265  -0.000090  -0.000131  -0.001741
     5  C    0.000947   0.001463  -0.006670   0.000166   0.001383   0.014996
     6  H    0.003719  -0.000061   0.000204  -0.000003  -0.000030  -0.000381
     7  H   -0.021492  -0.000186   0.001185  -0.000009  -0.000148  -0.000733
     8  C   -0.000186  -0.007459   0.003828   0.000657  -0.002093   0.000930
     9  H    0.001185   0.003828   0.003467  -0.000878  -0.001521  -0.001415
    10  H   -0.000009   0.000657  -0.000878  -0.001618   0.000950   0.000113
    11  H   -0.000148  -0.002093  -0.001521   0.000950   0.004075  -0.000664
    12  O   -0.000733   0.000930  -0.001415   0.000113  -0.000664   0.067107
    13  O    0.003597  -0.002182   0.004888  -0.000252  -0.000495  -0.047746
    14  H    0.000814   0.001624  -0.004345   0.000099   0.001471   0.010682
              13         14
     1  C    0.006617   0.001174
     2  H   -0.000839   0.000746
     3  H    0.001848  -0.001030
     4  H    0.001222  -0.000100
     5  C   -0.089674   0.060352
     6  H    0.002783   0.001971
     7  H    0.003597   0.000814
     8  C   -0.002182   0.001624
     9  H    0.004888  -0.004345
    10  H   -0.000252   0.000099
    11  H   -0.000495   0.001471
    12  O   -0.047746   0.010682
    13  O    0.589644  -0.048387
    14  H   -0.048387  -0.102455
 Mulliken charges and spin densities:
               1          2
     1  C   -0.276533  -0.032152
     2  H    0.107883   0.040983
     3  H    0.117481   0.006675
     4  H    0.102760   0.005406
     5  C   -0.296577   0.622519
     6  H    0.122967  -0.011196
     7  H    0.115452  -0.011415
     8  C   -0.067395  -0.004589
     9  H    0.065613   0.001224
    10  H    0.096677  -0.000921
    11  H    0.097894   0.002597
    12  O   -0.179191   0.037228
    13  O   -0.215885   0.421025
    14  H    0.208855  -0.077385
 Sum of Mulliken charges =  -0.00000   1.00000
 Mulliken charges and spin densities with hydrogens summed into heavy atoms:
               1          2
     1  C    0.051591   0.020913
     5  C   -0.058158   0.599908
     8  C    0.192789  -0.001690
    12  O   -0.179191   0.037228
    13  O   -0.007031   0.343641
 APT charges:
               1
     1  C   -0.066472
     2  H    0.008308
     3  H    0.011502
     4  H    0.002010
     5  C    0.398685
     6  H   -0.051362
     7  H   -0.061278
     8  C    0.431797
     9  H   -0.039997
    10  H   -0.003879
    11  H   -0.029663
    12  O   -0.422120
    13  O    0.146109
    14  H   -0.323638
 Sum of APT charges =  -0.00000
 APT charges with hydrogens summed into heavy atoms:
               1
     1  C   -0.044652
     5  C    0.286044
     8  C    0.358258
    12  O   -0.422120
    13  O   -0.177529
 Electronic spatial extent (au):  <R**2>=            582.9652
 Charge=             -0.0000 electrons
 Dipole moment (field-independent basis, Debye):
    X=             -1.0123    Y=             -1.5452    Z=              1.5668  Tot=              2.4222
 Quadrupole moment (field-independent basis, Debye-Ang):
   XX=            -29.3434   YY=            -33.3558   ZZ=            -33.2739
   XY=             -2.9052   XZ=              1.6831   YZ=              0.0990
 Traceless Quadrupole moment (field-independent basis, Debye-Ang):
   XX=              2.6476   YY=             -1.3647   ZZ=             -1.2828
   XY=             -2.9052   XZ=              1.6831   YZ=              0.0990
 Octapole moment (field-independent basis, Debye-Ang**2):
  XXX=             10.6594  YYY=              1.1315  ZZZ=             -1.8522  XYY=              1.9153
  XXY=             -0.8416  XXZ=              1.2184  XZZ=              1.1435  YZZ=              1.0168
  YYZ=             -0.6544  XYZ=              0.1854
 Hexadecapole moment (field-independent basis, Debye-Ang**3):
 XXXX=           -491.8725 YYYY=           -163.7760 ZZZZ=            -91.9341 XXXY=             -2.2732
 XXXZ=              2.9357 YYYX=             -6.9236 YYYZ=              0.2089 ZZZX=             -2.1813
 ZZZY=             -1.3518 XXYY=           -106.3971 XXZZ=           -102.3876 YYZZ=            -44.7092
 XXYZ=             -0.2765 YYXZ=             -1.5065 ZZXY=              0.3812
 N-N= 1.926169612113D+02 E-N=-1.017150745881D+03  KE= 2.684605067231D+02
  Exact polarizability:  81.846  -1.461  50.739  -3.807   0.942  44.652
 Approx polarizability:  68.916  -0.504  57.132  -5.375   0.516  51.392
                          Isotropic Fermi Contact Couplings
        Atom                 a.u.       MegaHertz       Gauss      10(-4) cm-1
     1  C(13)             -0.01190     -13.37694      -4.77322      -4.46207
     2  H(1)               0.02204      98.49714      35.14623      32.85511
     3  H(1)               0.00428      19.11542       6.82086       6.37622
     4  H(1)               0.00381      17.01663       6.07196       5.67614
     5  C(13)              0.09642     108.39855      38.67930      36.15786
     6  H(1)              -0.00359     -16.04728      -5.72607      -5.35280
     7  H(1)              -0.00397     -17.74197      -6.33078      -5.91808
     8  C(13)             -0.00430      -4.83566      -1.72548      -1.61300
     9  H(1)               0.00258      11.51206       4.10779       3.84001
    10  H(1)              -0.00015      -0.68572      -0.24468      -0.22873
    11  H(1)               0.00083       3.72206       1.32812       1.24155
    12  O(17)              0.01695     -10.27577      -3.66665      -3.42763
    13  O(17)              0.04339     -26.30024      -9.38458      -8.77282
    14  H(1)              -0.02375    -106.17936     -37.88744     -35.41762
 --------------------------------------------------------
       Center         ----  Spin Dipole Couplings  ----
                      3XX-RR        3YY-RR        3ZZ-RR
 --------------------------------------------------------
     1   Atom        0.009203      0.004812     -0.014015
     2   Atom        0.003443      0.001709     -0.005152
     3   Atom       -0.003935     -0.003137      0.007072
     4   Atom       -0.004818      0.011941     -0.007123
     5   Atom        0.558298     -0.256606     -0.301691
     6   Atom        0.014873      0.018873     -0.033746
     7   Atom       -0.004365     -0.039465      0.043830
     8   Atom        0.000212      0.001163     -0.001375
     9   Atom       -0.000491      0.001522     -0.001031
    10   Atom        0.000684      0.002786     -0.003470
    11   Atom        0.004026     -0.002525     -0.001501
    12   Atom        0.361345     -0.206987     -0.154358
    13   Atom        1.187713     -0.475836     -0.711877
    14   Atom        0.185228     -0.094939     -0.090289
 --------------------------------------------------------
                        XY            XZ            YZ
 --------------------------------------------------------
     1   Atom        0.020093      0.002702      0.008581
     2   Atom        0.007084      0.000021      0.003715
     3   Atom        0.002612      0.003351      0.008039
     4   Atom       -0.001160     -0.001168      0.002489
     5   Atom        0.300515     -0.221838     -0.073780
     6   Atom       -0.023136      0.003056     -0.025057
     7   Atom        0.010733      0.001243     -0.012682
     8   Atom       -0.007541      0.002178     -0.004683
     9   Atom       -0.004181      0.002596     -0.006576
    10   Atom       -0.004629      0.000788     -0.001606
    11   Atom       -0.004471      0.004980     -0.002576
    12   Atom        0.161967     -0.194243     -0.083345
    13   Atom        0.975302     -0.663958     -0.303051
    14   Atom        0.084140     -0.100419     -0.025804
 --------------------------------------------------------


 ---------------------------------------------------------------------------------
              Anisotropic Spin Dipole Couplings in Principal Axis System
 ---------------------------------------------------------------------------------

       Atom             a.u.   MegaHertz   Gauss  10(-4) cm-1        Axes

              Baa    -0.0190    -2.545    -0.908    -0.849  0.3155 -0.5466  0.7757
     1 C(13)  Bbb    -0.0097    -1.299    -0.463    -0.433  0.6194 -0.5007 -0.6048
              Bcc     0.0286     3.843     1.371     1.282  0.7189  0.6712  0.1806
 
              Baa    -0.0078    -4.182    -1.492    -1.395  0.3448 -0.5513  0.7597
     2 H(1)   Bbb    -0.0023    -1.222    -0.436    -0.408 -0.6053  0.4880  0.6289
              Bcc     0.0101     5.404     1.928     1.803  0.7175  0.6767  0.1655
 
              Baa    -0.0077    -4.116    -1.469    -1.373 -0.2292  0.8760 -0.4243
     3 H(1)   Bbb    -0.0048    -2.585    -0.922    -0.862  0.9416  0.0890 -0.3249
              Bcc     0.0126     6.700     2.391     2.235  0.2468  0.4740  0.8452
 
              Baa    -0.0078    -4.159    -1.484    -1.387  0.3297 -0.0990  0.9389
     4 H(1)   Bbb    -0.0046    -2.435    -0.869    -0.812  0.9410  0.1142 -0.3185
              Bcc     0.0124     6.594     2.353     2.200 -0.0757  0.9885  0.1308
 
              Baa    -0.3563   -47.814   -17.061   -15.949 -0.0437  0.6761  0.7355
     5 C(13)  Bbb    -0.3548   -47.608   -16.988   -15.880 -0.3761  0.6709 -0.6391
              Bcc     0.7111    95.422    34.049    31.830  0.9256  0.3046 -0.2249
 
              Baa    -0.0444   -23.691    -8.453    -7.902  0.1093  0.4003  0.9098
     6 H(1)   Bbb    -0.0013    -0.689    -0.246    -0.230  0.7956  0.5134 -0.3215
              Bcc     0.0457    24.380     8.699     8.132 -0.5958  0.7591 -0.2623
 
              Baa    -0.0443   -23.623    -8.429    -7.880 -0.2612  0.9549  0.1411
     7 H(1)   Bbb    -0.0014    -0.771    -0.275    -0.257  0.9653  0.2573  0.0456
              Bcc     0.0457    24.394     8.705     8.137 -0.0072 -0.1481  0.9889
 
              Baa    -0.0074    -0.999    -0.357    -0.333  0.6114  0.7173  0.3340
     8 C(13)  Bbb    -0.0029    -0.387    -0.138    -0.129 -0.5126  0.0375  0.8578
              Bcc     0.0103     1.386     0.494     0.462 -0.6028  0.6957 -0.3906
 
              Baa    -0.0066    -3.497    -1.248    -1.166  0.1509  0.6700  0.7268
     9 H(1)   Bbb    -0.0028    -1.500    -0.535    -0.500  0.8830  0.2392 -0.4038
              Bcc     0.0094     4.997     1.783     1.667 -0.4445  0.7027 -0.5555
 
              Baa    -0.0039    -2.094    -0.747    -0.699  0.2049  0.3591  0.9105
    10 H(1)   Bbb    -0.0029    -1.523    -0.543    -0.508  0.7656  0.5208 -0.3776
              Bcc     0.0068     3.617     1.291     1.207 -0.6098  0.7745 -0.1682
 
              Baa    -0.0048    -2.559    -0.913    -0.854  0.4056  0.9088  0.0975
    11 H(1)   Bbb    -0.0044    -2.362    -0.843    -0.788 -0.4602  0.1109  0.8808
              Bcc     0.0092     4.921     1.756     1.642  0.7897 -0.4021  0.4633
 
              Baa    -0.2690    19.465     6.946     6.493 -0.0587  0.8522  0.5200
    12 O(17)  Bbb    -0.2050    14.833     5.293     4.948  0.4027 -0.4564  0.7934
              Bcc     0.4740   -34.298   -12.238   -11.441  0.9135  0.2560 -0.3163
 
              Baa    -0.9271    67.084    23.937    22.377 -0.4824  0.7939 -0.3701
    13 O(17)  Bbb    -0.9189    66.492    23.726    22.179  0.0688  0.4556  0.8875
              Bcc     1.8460  -133.576   -47.663   -44.556  0.8733  0.4026 -0.2744
 
              Baa    -0.1234   -65.845   -23.495   -21.963  0.3613 -0.2549  0.8969
    14 H(1)   Bbb    -0.1176   -62.738   -22.386   -20.927 -0.1511  0.9332  0.3261
              Bcc     0.2410   128.583    45.882    42.891  0.9201  0.2534 -0.2986
 

 ---------------------------------------------------------------------------------

 Calling FoFJK, ICntrl=  10100127 FMM=F ISym2X=0 I1Cent= 0 IOpClX= 1 NMat=1 NMatS=1 NMatT=0.
 ***** Axes restored to original set *****
 -------------------------------------------------------------------
 Center     Atomic                   Forces (Hartrees/Bohr)
 Number     Number              X              Y              Z
 -------------------------------------------------------------------
      1        6          -0.000291807    0.000683039    0.000192265
      2        1           0.000275062    0.000052563    0.000165457
      3        1          -0.000356641    0.000360921   -0.000524343
      4        1          -0.000940648   -0.000376006    0.000367890
      5        6           0.001275623   -0.002063162   -0.000345969
      6        1          -0.000088622    0.000584042   -0.000352156
      7        1          -0.000550974   -0.000064433    0.000624200
      8        6           0.002127171    0.001807195   -0.004673368
      9        1           0.001321464    0.000234372    0.000309930
     10        1          -0.000207595   -0.000458872    0.000051046
     11        1          -0.000266424    0.000692002   -0.000134022
     12        8           0.004492413    0.009947790    0.008886834
     13        8          -0.001815620   -0.012586447   -0.003117235
     14        1          -0.004973402    0.001186998   -0.001450530
 -------------------------------------------------------------------
 Cartesian Forces:  Max     0.012586447 RMS     0.003235631
 FormGI is forming the generalized inverse of G from B-inverse, IUseBI=4.

 GradGradGradGradGradGradGradGradGradGradGradGradGradGradGradGradGradGrad
 Berny optimization.
 Internal  Forces:  Max     0.014856615 RMS     0.002754963
 Search for a saddle point.
 Step number   1 out of a maximum of  100
 All quantities printed in internal units (Hartrees-Bohrs-Radians)
 Swapping is turned off.
 Second derivative matrix not updated -- analytic derivatives used.
 ITU=  0
     Eigenvalues ---   -0.07479   0.00056   0.00187   0.00670   0.01895
     Eigenvalues ---    0.02631   0.03199   0.04359   0.04395   0.04630
     Eigenvalues ---    0.05557   0.07358   0.08489   0.08534   0.09286
     Eigenvalues ---    0.11339   0.12188   0.13382   0.14469   0.16163
     Eigenvalues ---    0.16770   0.18117   0.18732   0.22783   0.28917
     Eigenvalues ---    0.31340   0.32624   0.32984   0.33484   0.33963
     Eigenvalues ---    0.34536   0.34717   0.34797   0.35120   0.36286
     Eigenvalues ---    0.43741
 Eigenvectors required to have negative eigenvalues:
                          R7        R13       R12       D4        D8
   1                   -0.68350   0.67472  -0.14688   0.08122  -0.07658
                          D1        D2        D7        D5        A11
   1                    0.07165  -0.07060   0.06568  -0.06103   0.06090
 RFO step:  Lambda0=5.598773938D-05 Lambda=-1.27479933D-03.
 Linear search not attempted -- option 19 set.
 Iteration  1 RMS(Cart)=  0.06958206 RMS(Int)=  0.00081418
 Iteration  2 RMS(Cart)=  0.00172952 RMS(Int)=  0.00005499
 Iteration  3 RMS(Cart)=  0.00000204 RMS(Int)=  0.00005498
 Iteration  4 RMS(Cart)=  0.00000000 RMS(Int)=  0.00005498
 Variable       Old X    -DE/DX   Delta X   Delta X   Delta X     New X
                                 (Linear)    (Quad)   (Total)
    R1        2.06892  -0.00025   0.00000  -0.00042  -0.00042   2.06850
    R2        2.05819  -0.00062   0.00000  -0.00180  -0.00180   2.05639
    R3        2.05894  -0.00098   0.00000  -0.00201  -0.00201   2.05693
    R4        2.83283   0.00085   0.00000   0.00059   0.00059   2.83342
    R5        2.05303  -0.00050   0.00000  -0.00177  -0.00177   2.05126
    R6        2.05309  -0.00065   0.00000  -0.00216  -0.00216   2.05094
    R7        2.56095   0.00031   0.00000   0.01593   0.01593   2.57688
    R8        2.06664  -0.00112   0.00000  -0.00361  -0.00361   2.06303
    R9        2.05688  -0.00045   0.00000  -0.00068  -0.00068   2.05620
   R10        2.05930  -0.00054   0.00000  -0.00220  -0.00220   2.05711
   R11        2.66924   0.00574   0.00000   0.01382   0.01382   2.68306
   R12        2.61076   0.01486   0.00000   0.04782   0.04782   2.65858
   R13        2.20566   0.00574   0.00000  -0.00691  -0.00691   2.19874
    A1        1.88106  -0.00032   0.00000  -0.00275  -0.00275   1.87831
    A2        1.87658  -0.00036   0.00000  -0.00152  -0.00152   1.87505
    A3        1.93128   0.00007   0.00000  -0.00083  -0.00083   1.93045
    A4        1.88265  -0.00024   0.00000   0.00126   0.00125   1.88391
    A5        1.94076   0.00032   0.00000   0.00290   0.00290   1.94365
    A6        1.94870   0.00047   0.00000   0.00073   0.00073   1.94943
    A7        2.02602  -0.00071   0.00000   0.00192   0.00201   2.02803
    A8        2.03310  -0.00052   0.00000  -0.00054  -0.00046   2.03264
    A9        1.82303   0.00226   0.00000   0.00421   0.00424   1.82727
   A10        1.96905   0.00035   0.00000   0.00076   0.00062   1.96967
   A11        1.75846  -0.00055   0.00000  -0.00091  -0.00097   1.75749
   A12        1.80729  -0.00057   0.00000  -0.00640  -0.00644   1.80085
   A13        1.91929  -0.00038   0.00000  -0.00146  -0.00145   1.91784
   A14        1.91406  -0.00052   0.00000   0.00133   0.00130   1.91536
   A15        1.92667   0.00129   0.00000   0.00785   0.00783   1.93450
   A16        1.92740  -0.00028   0.00000  -0.00200  -0.00201   1.92539
   A17        1.84769  -0.00079   0.00000  -0.00936  -0.00936   1.83833
   A18        1.92796   0.00069   0.00000   0.00337   0.00335   1.93131
   A19        1.88661   0.00175   0.00000  -0.00639  -0.00639   1.88022
   A20        1.81055   0.00702   0.00000   0.00632   0.00632   1.81687
   A21        3.08378   0.00383   0.00000   0.02950   0.02951   3.11330
   A22        2.99781   0.00335   0.00000   0.04873   0.04877   3.04657
    D1       -1.15834   0.00047   0.00000  -0.01795  -0.01794  -1.17628
    D2        1.22546  -0.00048   0.00000  -0.01497  -0.01498   1.21049
    D3       -3.07676   0.00006   0.00000  -0.02030  -0.02031  -3.09707
    D4        0.93161   0.00032   0.00000  -0.02006  -0.02005   0.91156
    D5       -2.96777  -0.00062   0.00000  -0.01708  -0.01709  -2.98486
    D6       -0.98681  -0.00009   0.00000  -0.02241  -0.02242  -1.00922
    D7        3.03531   0.00056   0.00000  -0.01595  -0.01594   3.01937
    D8       -0.86407  -0.00038   0.00000  -0.01297  -0.01298  -0.87705
    D9        1.11689   0.00015   0.00000  -0.01831  -0.01831   1.09858
   D10       -0.40232  -0.00068   0.00000   0.01265   0.01264  -0.38968
   D11       -2.49743  -0.00059   0.00000   0.00547   0.00570  -2.49173
   D12        1.71781   0.00043   0.00000   0.01928   0.01906   1.73687
   D13        1.11994   0.00042   0.00000   0.01794   0.01797   1.13792
   D14       -3.08680   0.00019   0.00000   0.01492   0.01491  -3.07189
   D15       -0.99999  -0.00024   0.00000   0.00881   0.00879  -0.99120
   D16       -1.53277  -0.00210   0.00000  -0.05062  -0.05062  -1.58339
         Item               Value     Threshold  Converged?
 Maximum Force            0.014857     0.000450     NO 
 RMS     Force            0.002755     0.000300     NO 
 Maximum Displacement     0.221267     0.001800     NO 
 RMS     Displacement     0.070403     0.001200     NO 
 Predicted change in Energy=-6.172251D-04
 GradGradGradGradGradGradGradGradGradGradGradGradGradGradGradGradGradGrad

                          Input orientation:                          
 ---------------------------------------------------------------------
 Center     Atomic      Atomic             Coordinates (Angstroms)
 Number     Number       Type             X           Y           Z
 ---------------------------------------------------------------------
      1          6           0       -1.880513    0.768048    0.321488
      2          1           0       -2.890078    1.165904    0.177790
      3          1           0       -1.752086    0.571495    1.384050
      4          1           0       -1.178432    1.550004    0.037915
      5          6           0       -1.682817   -0.475931   -0.491884
      6          1           0       -2.263986   -1.342175   -0.191666
      7          1           0       -1.642279   -0.348202   -1.568887
      8          6           0        1.828057    0.680753   -0.483541
      9          1           0        1.100102    0.954278   -1.249764
     10          1           0        2.287424    1.577434   -0.072575
     11          1           0        2.587522    0.030070   -0.913445
     12          8           0        1.190453    0.048005    0.615987
     13          8           0        0.655485   -1.169934    0.158071
     14          1           0       -0.423319   -0.896008   -0.180948
 ---------------------------------------------------------------------
                    Distance matrix (angstroms):
                    1          2          3          4          5
     1  C    0.000000
     2  H    1.094605   0.000000
     3  H    1.088193   1.761650   0.000000
     4  H    1.088480   1.759781   1.760296   0.000000
     5  C    1.499380   2.145126   2.149657   2.153951   0.000000
     6  H    2.205315   2.611312   2.531216   3.097714   1.085480
     7  H    2.208232   2.626861   3.094793   2.529853   1.085309
     8  C    3.795943   4.788896   4.039463   3.172773   3.696514
     9  H    3.374550   4.243139   3.901087   2.684162   3.219397
    10  H    4.264047   5.199862   4.410365   3.467725   4.489425
    11  H    4.693933   5.699562   4.940022   4.171054   4.320826
    12  O    3.167968   4.253521   3.085854   2.863876   3.123710
    13  O    3.195898   4.245885   3.214342   3.282644   2.524230
    14  H    2.268246   3.234976   2.523570   2.569255   1.363627
                    6          7          8          9         10
     6  H    0.000000
     7  H    1.808657   0.000000
     8  C    4.574083   3.778883   0.000000
     9  H    4.208367   3.052695   1.091711   0.000000
    10  H    5.408663   4.624888   1.088094   1.784329   0.000000
    11  H    5.093245   4.296965   1.088574   1.783168   1.786465
    12  O    3.810255   3.599309   1.419814   2.076180   2.004151
    13  O    2.945385   2.989540   2.282899   2.586882   3.203819
    14  H    1.893999   1.926741   2.765218   2.624259   3.671211
                   11         12         13         14
    11  H    0.000000
    12  O    2.071541   0.000000
    13  O    2.514144   1.406859   0.000000
    14  H    3.234089   2.032369   1.163524   0.000000
 Stoichiometry    C3H9O2(2)
 Framework group  C1[X(C3H9O2)]
 Deg. of freedom    36
 Full point group                 C1      NOp   1
 Largest Abelian subgroup         C1      NOp   1
 Largest concise Abelian subgroup C1      NOp   1
                         Standard orientation:                         
 ---------------------------------------------------------------------
 Center     Atomic      Atomic             Coordinates (Angstroms)
 Number     Number       Type             X           Y           Z
 ---------------------------------------------------------------------
      1          6           0       -1.883889   -0.783120   -0.288650
      2          1           0       -2.889428   -1.183009   -0.123911
      3          1           0       -1.768741   -0.611165   -1.356984
      4          1           0       -1.174104   -1.554237    0.005243
      5          6           0       -1.684117    0.480904    0.492679
      6          1           0       -2.273677    1.336553    0.178754
      7          1           0       -1.630546    0.379026    1.571867
      8          6           0        1.833065   -0.656282    0.471189
      9          1           0        1.115501   -0.915533    1.252037
     10          1           0        2.292889   -1.559930    0.076307
     11          1           0        2.593612    0.008608    0.876752
     12          8           0        1.179298   -0.053362   -0.635584
     13          8           0        0.642557    1.172145   -0.200507
     14          1           0       -0.430703    0.900410    0.157348
 ---------------------------------------------------------------------
 Rotational constants (GHZ):           7.4604536           2.5226909           2.2214930
 Standard basis: CC-pVTZ (5D, 7F)
 There are   310 symmetry adapted cartesian basis functions of A   symmetry.
 There are   276 symmetry adapted basis functions of A   symmetry.
   276 basis functions,   413 primitive gaussians,   310 cartesian basis functions
    22 alpha electrons       21 beta electrons
       nuclear repulsion energy       190.3511906141 Hartrees.
 NAtoms=   14 NActive=   14 NUniq=   14 SFac= 1.00D+00 NAtFMM=   60 NAOKFM=F Big=F
 Integral buffers will be    131072 words long.
 Raffenetti 2 integral format.
 Two-electron integral symmetry is turned on.
 Nuclear repulsion after empirical dispersion term =      190.3452728826 Hartrees.
 One-electron integrals computed using PRISM.
 NBasis=   276 RedAO= T EigKep=  9.88D-04  NBF=   276
 NBsUse=   276 1.00D-06 EigRej= -1.00D+00 NBFU=   276
 Initial guess from the checkpoint file:  "/localscratch/341085/Gau-55767.chk"
 B after Tr=     0.000000   -0.000000   -0.000000
         Rot=    0.999945    0.009589   -0.003362   -0.002465 Ang=   1.20 deg.
 Initial guess <Sx>= 0.0000 <Sy>= 0.0000 <Sz>= 0.5000 <S**2>= 0.7683 S= 0.5091
 ExpMin= 1.03D-01 ExpMax= 1.53D+04 ExpMxC= 5.22D+02 IAcc=3 IRadAn=         5 AccDes= 0.00D+00
 Harris functional with IExCor=  419 and IRadAn=       5 diagonalized for initial guess.
 HarFok:  IExCor=  419 AccDes= 0.00D+00 IRadAn=         5 IDoV= 1 UseB2=F ITyADJ=14
 ICtDFT=  3500011 ScaDFX=  1.000000  1.000000  1.000000  1.000000
 FoFCou: FMM=F IPFlag=           0 FMFlag=      100000 FMFlg1=           0
         NFxFlg=           0 DoJE=T BraDBF=F KetDBF=T FulRan=T
         wScrn=  0.000000 ICntrl=       500 IOpCl=  0 I1Cent=   200000004 NGrid=           0
         NMat0=    1 NMatS0=      1 NMatT0=    0 NMatD0=    1 NMtDS0=    0 NMtDT0=    0
 Petite list used in FoFCou.
 Requested convergence on RMS density matrix=1.00D-08 within 128 cycles.
 Requested convergence on MAX density matrix=1.00D-06.
 Requested convergence on             energy=1.00D-06.
 No special actions if energy rises.
 Integral accuracy reduced to 1.0D-05 until final iterations.
 Initial convergence to 1.0D-05 achieved.  Increase integral accuracy.
 SCF Done:  E(UB2PLYPD3) =  -269.557802451     A.U. after   15 cycles
            NFock= 15  Conv=0.57D-08     -V/T= 2.0043
 <Sx>= 0.0000 <Sy>= 0.0000 <Sz>= 0.5000 <S**2>= 0.7682 S= 0.5091
 <L.S>=  0.00000000000    
 Annihilation of the first spin contaminant:
 S**2 before annihilation     0.7682,   after     0.7501
 DoSCS=T DFT=T ScalE2(SS,OS)=  0.270000  0.270000
 ExpMin= 1.03D-01 ExpMax= 1.53D+04 ExpMxC= 5.22D+02 IAcc=3 IRadAn=         5 AccDes= 0.00D+00
 HarFok:  IExCor=  205 AccDes= 0.00D+00 IRadAn=         5 IDoV=-2 UseB2=F ITyADJ=14
 ICtDFT= 12500011 ScaDFX=  1.000000  1.000000  1.000000  1.000000
 Range of M.O.s used for correlation:     6   276
 NBasis=   276 NAE=    22 NBE=    21 NFC=     5 NFV=     0
 NROrb=    271 NOA=    17 NOB=    16 NVA=   254 NVB=   255

 **** Warning!!: The largest alpha MO coefficient is  0.11764157D+02


 **** Warning!!: The largest beta MO coefficient is  0.11764849D+02

 DoSCS=T DFT=T ScalE2(SS,OS)=  0.270000  0.270000
 Fully direct method using O(ONN) memory.
 JobTyp=2 Pass  1:  I=   6 to  21 NPSUse= 40 ParTrn=T ParDer=T DoDerP=T.
 JobTyp=2 Pass  2:  I=  22 to  22 NPSUse= 40 ParTrn=T ParDer=T DoDerP=T.
 JobTyp=3 Pass  1:  I=   6 to  21 NPSUse= 40 ParTrn=T ParDer=T DoDerP=T.
 Spin components of T(2) and E(2):
     alpha-alpha T2 =       0.5410887980D-01 E2=     -0.4070001327D-01
     alpha-beta  T2 =       0.3353105156D+00 E2=     -0.2555859498D+00
     beta-beta   T2 =       0.5841832109D-01 E2=     -0.3918097973D-01
 (S**2,0)=  0.76823D+00           (S**2,1)=  0.74275D+00
 Scaling Projection term by:   0.270000
 E(PUHF)=      -0.26956395111D+03        E(PMP2)=      -0.26989377522D+03
 E2(B2PLYPD3) =    -0.3354669428D+00 E(B2PLYPD3) =    -0.26989326939414D+03
          IDoAtm=11111111111111
          Differentiating once with respect to electric field.
                with respect to dipole field.
          Differentiating once with respect to nuclear coordinates.
 Keep R1 and R2 ints in memory in canonical form, NReq=1506972220.
          There are     1 degrees of freedom in the 1st order CPHF.  IDoFFX=0 NUNeed=     1.
 LinEq1:  Iter=  0 NonCon=     1 RMS=1.02D-03 Max=6.68D-02 NDo=     1
 AX will form     1 AO Fock derivatives at one time.
 LinEq1:  Iter=  1 NonCon=     1 RMS=3.26D-04 Max=8.75D-03 NDo=     1
 LinEq1:  Iter=  2 NonCon=     1 RMS=1.78D-04 Max=7.84D-03 NDo=     1
 LinEq1:  Iter=  3 NonCon=     1 RMS=7.33D-05 Max=1.07D-03 NDo=     1
 LinEq1:  Iter=  4 NonCon=     1 RMS=4.01D-05 Max=6.12D-04 NDo=     1
 LinEq1:  Iter=  5 NonCon=     1 RMS=2.99D-05 Max=8.44D-04 NDo=     1
 LinEq1:  Iter=  6 NonCon=     1 RMS=1.79D-05 Max=5.04D-04 NDo=     1
 LinEq1:  Iter=  7 NonCon=     1 RMS=5.77D-06 Max=8.94D-05 NDo=     1
 LinEq1:  Iter=  8 NonCon=     1 RMS=2.35D-06 Max=3.25D-05 NDo=     1
 LinEq1:  Iter=  9 NonCon=     1 RMS=1.10D-06 Max=2.30D-05 NDo=     1
 LinEq1:  Iter= 10 NonCon=     1 RMS=3.60D-07 Max=6.63D-06 NDo=     1
 LinEq1:  Iter= 11 NonCon=     1 RMS=1.06D-07 Max=2.26D-06 NDo=     1
 LinEq1:  Iter= 12 NonCon=     1 RMS=4.14D-08 Max=8.61D-07 NDo=     1
 LinEq1:  Iter= 13 NonCon=     1 RMS=1.76D-08 Max=3.04D-07 NDo=     1
 LinEq1:  Iter= 14 NonCon=     1 RMS=6.11D-09 Max=1.74D-07 NDo=     1
 LinEq1:  Iter= 15 NonCon=     1 RMS=1.69D-09 Max=7.05D-08 NDo=     1
 LinEq1:  Iter= 16 NonCon=     1 RMS=5.38D-10 Max=2.90D-08 NDo=     1
 LinEq1:  Iter= 17 NonCon=     1 RMS=1.64D-10 Max=7.00D-09 NDo=     1
 LinEq1:  Iter= 18 NonCon=     1 RMS=5.32D-11 Max=1.38D-09 NDo=     1
 LinEq1:  Iter= 19 NonCon=     0 RMS=1.44D-11 Max=2.27D-10 NDo=     1
 Linear equations converged to 1.000D-10 1.000D-09 after    19 iterations.
 End of Minotr F.D. properties file   721 does not exist.
 End of Minotr F.D. properties file   722 does not exist.
 End of Minotr F.D. properties file   788 does not exist.
 Calling FoFJK, ICntrl=  10002127 FMM=F ISym2X=0 I1Cent= 0 IOpClX= 1 NMat=1 NMatS=1 NMatT=0.
 ***** Axes restored to original set *****
 -------------------------------------------------------------------
 Center     Atomic                   Forces (Hartrees/Bohr)
 Number     Number              X              Y              Z
 -------------------------------------------------------------------
      1        6          -0.000110363    0.000019370    0.000005745
      2        1           0.000008269    0.000017000   -0.000027620
      3        1          -0.000055133    0.000000097   -0.000004544
      4        1          -0.000093716   -0.000007606    0.000044157
      5        6          -0.000002510   -0.000090829   -0.000024609
      6        1          -0.000003674    0.000013737    0.000021751
      7        1          -0.000068578   -0.000004159   -0.000004294
      8        6           0.000177368    0.000037828   -0.000122454
      9        1           0.000056314   -0.000007253    0.000034049
     10        1           0.000014525   -0.000008375    0.000010897
     11        1           0.000000861   -0.000005374    0.000002085
     12        8           0.000441762    0.000860910    0.000393848
     13        8          -0.000169885   -0.001014208   -0.000335438
     14        1          -0.000195240    0.000188861    0.000006426
 -------------------------------------------------------------------
 Cartesian Forces:  Max     0.001014208 RMS     0.000240525

 GradGradGradGradGradGradGradGradGradGradGradGradGradGradGradGradGradGrad
 Berny optimization.
 FormGI is forming the generalized inverse of G from B-inverse, IUseBI=4.
 Internal  Forces:  Max     0.001135874 RMS     0.000287832
 Search for a saddle point.
 Step number   2 out of a maximum of  100
 All quantities printed in internal units (Hartrees-Bohrs-Radians)
 Swapping is turned off.
 Update second derivatives using D2CorX and points    1    2
 ITU=  0  0
     Eigenvalues ---   -0.07436   0.00061   0.00360   0.00729   0.01926
     Eigenvalues ---    0.02629   0.03200   0.04359   0.04393   0.04626
     Eigenvalues ---    0.05323   0.07319   0.08488   0.08533   0.09285
     Eigenvalues ---    0.11244   0.12169   0.13373   0.14465   0.16164
     Eigenvalues ---    0.16774   0.18116   0.18730   0.22592   0.28276
     Eigenvalues ---    0.31337   0.32594   0.32975   0.33442   0.33955
     Eigenvalues ---    0.34510   0.34717   0.34791   0.35120   0.36219
     Eigenvalues ---    0.43200
 Eigenvectors required to have negative eigenvalues:
                          R7        R13       R12       D8        D4
   1                   -0.68488   0.67357  -0.14827  -0.07916   0.07756
                          D2        D1        D5        A11       D7
   1                   -0.07326   0.06791  -0.06361   0.06267   0.06202
 RFO step:  Lambda0=6.082003387D-09 Lambda=-3.24611434D-05.
 Linear search not attempted -- option 19 set.
 Iteration  1 RMS(Cart)=  0.03492158 RMS(Int)=  0.00040151
 Iteration  2 RMS(Cart)=  0.00052121 RMS(Int)=  0.00000616
 Iteration  3 RMS(Cart)=  0.00000018 RMS(Int)=  0.00000616
 Variable       Old X    -DE/DX   Delta X   Delta X   Delta X     New X
                                 (Linear)    (Quad)   (Total)
    R1        2.06850   0.00000   0.00000  -0.00001  -0.00001   2.06849
    R2        2.05639  -0.00001   0.00000  -0.00009  -0.00009   2.05630
    R3        2.05693  -0.00008   0.00000   0.00009   0.00009   2.05701
    R4        2.83342   0.00007   0.00000  -0.00000  -0.00000   2.83342
    R5        2.05126  -0.00000   0.00000   0.00003   0.00003   2.05129
    R6        2.05094   0.00000   0.00000   0.00003   0.00003   2.05096
    R7        2.57688   0.00028   0.00000  -0.00002  -0.00002   2.57687
    R8        2.06303  -0.00007   0.00000  -0.00008  -0.00008   2.06295
    R9        2.05620   0.00000   0.00000   0.00005   0.00005   2.05625
   R10        2.05711   0.00000   0.00000  -0.00006  -0.00006   2.05705
   R11        2.68306   0.00017   0.00000   0.00039   0.00039   2.68344
   R12        2.65858   0.00114   0.00000   0.00419   0.00419   2.66276
   R13        2.19874   0.00051   0.00000   0.00071   0.00071   2.19945
    A1        1.87831  -0.00001   0.00000   0.00037   0.00037   1.87868
    A2        1.87505  -0.00005   0.00000  -0.00007  -0.00007   1.87499
    A3        1.93045  -0.00004   0.00000   0.00020   0.00020   1.93065
    A4        1.88391  -0.00002   0.00000  -0.00007  -0.00007   1.88384
    A5        1.94365   0.00001   0.00000  -0.00005  -0.00005   1.94361
    A6        1.94943   0.00009   0.00000  -0.00037  -0.00037   1.94906
    A7        2.02803  -0.00017   0.00000   0.00051   0.00052   2.02855
    A8        2.03264  -0.00006   0.00000  -0.00065  -0.00066   2.03198
    A9        1.82727   0.00050   0.00000   0.00062   0.00062   1.82790
   A10        1.96967   0.00009   0.00000  -0.00033  -0.00033   1.96934
   A11        1.75749  -0.00017   0.00000   0.00005   0.00005   1.75754
   A12        1.80085  -0.00015   0.00000  -0.00003  -0.00003   1.80082
   A13        1.91784   0.00000   0.00000   0.00001   0.00001   1.91786
   A14        1.91536   0.00000   0.00000   0.00037   0.00037   1.91573
   A15        1.93450   0.00003   0.00000   0.00018   0.00018   1.93468
   A16        1.92539  -0.00001   0.00000  -0.00015  -0.00015   1.92524
   A17        1.83833  -0.00002   0.00000  -0.00045  -0.00045   1.83788
   A18        1.93131  -0.00001   0.00000   0.00001   0.00001   1.93132
   A19        1.88022   0.00014   0.00000  -0.00042  -0.00042   1.87980
   A20        1.81687   0.00092   0.00000   0.00073   0.00073   1.81760
   A21        3.11330   0.00078   0.00000   0.00534   0.00533   3.11863
   A22        3.04657   0.00060   0.00000   0.00950   0.00950   3.05608
    D1       -1.17628   0.00005   0.00000  -0.02357  -0.02356  -1.19984
    D2        1.21049  -0.00009   0.00000  -0.02429  -0.02429   1.18620
    D3       -3.09707   0.00001   0.00000  -0.02424  -0.02424  -3.12131
    D4        0.91156   0.00002   0.00000  -0.02299  -0.02299   0.88857
    D5       -2.98486  -0.00012   0.00000  -0.02372  -0.02372  -3.00857
    D6       -1.00922  -0.00001   0.00000  -0.02367  -0.02367  -1.03290
    D7        3.01937   0.00007   0.00000  -0.02337  -0.02337   2.99600
    D8       -0.87705  -0.00007   0.00000  -0.02410  -0.02409  -0.90114
    D9        1.09858   0.00003   0.00000  -0.02405  -0.02405   1.07453
   D10       -0.38968  -0.00019   0.00000  -0.03967  -0.03970  -0.42938
   D11       -2.49173  -0.00013   0.00000  -0.04168  -0.04166  -2.53339
   D12        1.73687   0.00006   0.00000  -0.03944  -0.03942   1.69744
   D13        1.13792   0.00002   0.00000   0.00551   0.00551   1.14343
   D14       -3.07189   0.00003   0.00000   0.00536   0.00536  -3.06653
   D15       -0.99120   0.00001   0.00000   0.00492   0.00492  -0.98628
   D16       -1.58339  -0.00051   0.00000  -0.00597  -0.00597  -1.58936
         Item               Value     Threshold  Converged?
 Maximum Force            0.001136     0.000450     NO 
 RMS     Force            0.000288     0.000300     YES
 Maximum Displacement     0.120131     0.001800     NO 
 RMS     Displacement     0.034864     0.001200     NO 
 Predicted change in Energy=-1.639539D-05
 GradGradGradGradGradGradGradGradGradGradGradGradGradGradGradGradGradGrad

                          Input orientation:                          
 ---------------------------------------------------------------------
 Center     Atomic      Atomic             Coordinates (Angstroms)
 Number     Number       Type             X           Y           Z
 ---------------------------------------------------------------------
[...]
 ! A10   A(6,5,7)              112.7999         -DE/DX =    0.0                 !
 ! A11   A(6,5,14)             100.9362         -DE/DX =    0.0                 !
 ! A12   A(7,5,14)             103.0631         -DE/DX =    0.0                 !
 ! A13   A(9,8,10)             109.8917         -DE/DX =    0.0                 !
 ! A14   A(9,8,11)             109.7797         -DE/DX =    0.0                 !
 ! A15   A(9,8,12)             110.8623         -DE/DX =    0.0                 !
 ! A16   A(10,8,11)            110.2977         -DE/DX =    0.0                 !
 ! A17   A(10,8,12)            105.2891         -DE/DX =    0.0                 !
 ! A18   A(11,8,12)            110.6432         -DE/DX =    0.0                 !
 ! A19   A(8,12,13)            107.7159         -DE/DX =    0.0                 !
 ! A20   A(12,13,14)           104.1399         -DE/DX =    0.0                 !
 ! A21   L(5,14,13,9,-1)       178.9407         -DE/DX =    0.0                 !
 ! A22   L(5,14,13,9,-2)       174.8919         -DE/DX =    0.0                 !
 ! D1    D(2,1,5,6)            -71.7016         -DE/DX =    0.0                 !
 ! D2    D(2,1,5,7)             65.0821         -DE/DX =    0.0                 !
 ! D3    D(2,1,5,14)           177.9684         -DE/DX =    0.0                 !
 ! D4    D(3,1,5,6)             48.1008         -DE/DX =    0.0                 !
 ! D5    D(3,1,5,7)           -175.1155         -DE/DX =    0.0                 !
 ! D6    D(3,1,5,14)           -62.2292         -DE/DX =    0.0                 !
 ! D7    D(4,1,5,6)            168.6905         -DE/DX =    0.0                 !
 ! D8    D(4,1,5,7)            -54.5258         -DE/DX =    0.0                 !
 ! D9    D(4,1,5,14)            58.3605         -DE/DX =    0.0                 !
 ! D10   D(1,5,13,12)          -33.9468         -DE/DX =    0.0                 !
 ! D11   D(6,5,13,12)         -154.7746         -DE/DX =    0.0                 !
 ! D12   D(7,5,13,12)           87.5909         -DE/DX =    0.0                 !
 ! D13   D(9,8,12,13)           65.4864         -DE/DX =    0.0                 !
 ! D14   D(10,8,12,13)        -175.72           -DE/DX =    0.0                 !
 ! D15   D(11,8,12,13)         -56.5576         -DE/DX =    0.0                 !
 ! D16   D(8,12,13,14)         -91.4074         -DE/DX =    0.0                 !
 --------------------------------------------------------------------------------
 GradGradGradGradGradGradGradGradGradGradGradGradGradGradGradGradGradGrad


 ----------------------------------------------------------------------

 Electric dipole moment (input orientation):
 (Debye = 10**-18 statcoulomb cm , SI units = C m)
                  (au)            (Debye)         (10**-30 SI)
   Tot        0.888460D+00      0.225824D+01      0.753268D+01
   x         -0.324822D+00     -0.825615D+00     -0.275395D+01
   y          0.538125D+00      0.136778D+01      0.456241D+01
   z         -0.627912D+00     -0.159599D+01     -0.532366D+01

 Dipole polarizability, Alpha (input orientation).
 (esu units = cm**3 , SI units = C**2 m**2 J**-1)
 Alpha(0;0):
               (au)            (10**-24 esu)      (10**-40 SI)
   iso        0.597025D+02      0.884699D+01      0.984361D+01
   aniso      0.367015D+02      0.543859D+01      0.605125D+01
   xx         0.836596D+02      0.123971D+02      0.137936D+02
   yx         0.168221D+01      0.249278D+00      0.277359D+00
   yy         0.503294D+02      0.745805D+01      0.829820D+01
   zx         0.293097D+01      0.434325D+00      0.483251D+00
   zy         0.577060D+00      0.855114D-01      0.951443D-01
   zz         0.451184D+02      0.668586D+01      0.743903D+01

 ----------------------------------------------------------------------

 Dipole orientation:
     6         -3.52121192         -1.04875362          1.69013262
     1         -4.95479080         -1.15496271          3.17709610
     1         -4.34400814         -1.82112380         -0.02855662
     1         -1.96007981         -2.26727512          2.24807895
     6         -2.66571312          1.62591720          1.31213220
     1         -4.00481638          2.89358037          0.41342047
     1         -1.67903268          2.49721744          2.88519901
     6          3.83697491         -0.78538805          0.18256282
     1          3.22421026          0.01485452          1.98219040
     1          4.67736471         -2.63668784          0.49005694
     1          5.19403093          0.47440221         -0.71341049
     8          1.73919217         -1.22013407         -1.43382526
     8          0.68580902          1.14678393         -2.04860766
     1         -0.84592482          1.47141060         -0.50248574

 Electric dipole moment (dipole orientation):
 (Debye = 10**-18 statcoulomb cm , SI units = C m)
                  (au)            (Debye)         (10**-30 SI)
   Tot        0.888460D+00      0.225824D+01      0.753268D+01
   x          0.000000D+00      0.000000D+00      0.000000D+00
   y          0.000000D+00      0.000000D+00      0.000000D+00
   z          0.888460D+00      0.225824D+01      0.753268D+01

 Dipole polarizability, Alpha (dipole orientation).
 (esu units = cm**3 , SI units = C**2 m**2 J**-1)
 Alpha(0;0):
               (au)            (10**-24 esu)      (10**-40 SI)
   iso        0.597025D+02      0.884699D+01      0.984361D+01
   aniso      0.367015D+02      0.543859D+01      0.605125D+01
   xx         0.763192D+02      0.113093D+02      0.125833D+02
   yx        -0.776203D+01     -0.115021D+01     -0.127979D+01
   yy         0.503309D+02      0.745827D+01      0.829845D+01
   zx        -0.134165D+02     -0.198812D+01     -0.221208D+01
   zy         0.727272D+00      0.107771D+00      0.119911D+00
   zz         0.524573D+02      0.777336D+01      0.864903D+01

 ----------------------------------------------------------------------
 1\1\GINC-N58\Freq\UB2PLYPD3-FC\CC-pVTZ\C3H9O2(2)\ROOT\05-Jun-2019\0\\#
 N Geom=AllCheck Guess=TCheck SCRF=Check GenChk UB2PLYPD3(FC)/CC-pVTZ F
 req\\Title Card Required\\0,2\C,-1.9723982181,0.7356423095,0.385285028
 4\H,-2.9519915498,1.157931684,0.1405656957\H,-1.9881646474,0.449157417
 3,1.4348002351\H,-1.2352645908,1.5278703901,0.2651416697\C,-1.66564640
 41,-0.4379261894,-0.4961256064\H,-2.2319357218,-1.3445454737,-0.307244
 7936\H,-1.5485670059,-0.2279623909,-1.554593955\C,1.890027568,0.648226
 9787,-0.5588803288\H,1.1880488275,0.8505129894,-1.3698645666\H,2.36752
 95007,1.5735754983,-0.2431022286\H,2.6387588965,-0.0691332329,-0.89012
 01314\O,1.2094339242,0.1667333141,0.5908307275\O,0.6520972625,-1.08593
 43509,0.2659206188\H,-0.4163948416,-0.8304069438,-0.1200223649\\Versio
 n=ES64L-G16RevB.01\State=2-A\HF=-269.5578687\MP2=-269.8933051\PUHF=-26
 9.5640253\PMP2-0=-269.8938125\S2=0.768271\S2-1=0.742761\S2A=0.750149\R
 MSD=1.007e-09\RMSF=1.181e-06\ZeroPoint=0.1131806\Thermal=0.1210367\Dip
 ole=-0.3248219,0.5381249,-0.6279119\DipoleDeriv=-0.2089227,0.0664456,0
 .0208282,0.0870312,-0.0361736,-0.0395237,-0.0864943,-0.0082802,0.04328
 4,-0.0707393,0.0797896,-0.0264696,0.1526651,0.0236711,-0.0003932,0.043
 0075,-0.0162236,0.0585459,0.0912025,-0.0000515,-0.0074656,0.0048915,0.
 0292031,0.0458241,0.0367457,0.0110462,-0.1020741,0.0284443,-0.1107918,
 0.0170128,-0.0634432,-0.0333392,0.005996,0.0525617,-0.0022738,0.038830
 8,0.9914187,-0.009957,0.1062984,-0.4235681,0.1251804,-0.0579273,0.1322
 419,0.0021494,0.1270653,-0.1154703,-0.0910321,-0.0061013,0.0154066,-0.
 0649829,-0.0042197,-0.0275217,0.0027295,0.0324543,-0.0926245,-0.009404
 6,-0.0133192,0.0343206,0.0217764,0.0337312,0.010038,-0.0110781,-0.1170
 443,0.5749101,0.0385533,-0.0494648,0.1405552,0.3138646,-0.0515197,-0.3
 62158,-0.0997598,0.4250438,-0.0883813,0.0298279,-0.1257433,-0.0106197,
 0.0305648,0.0186379,0.0331782,0.0672528,-0.0700432,0.0084313,-0.070919
 2,0.0053593,-0.1089111,-0.0557854,-0.0248561,0.0162756,-0.0425961,0.02
 74911,-0.0831064,0.0377919,0.0512718,0.1313372,-0.0244881,-0.0476787,0
 .0952483,0.0269124,0.0177448,-0.6239435,0.0310888,-0.0015767,-0.868666
 8,-0.25217,-0.1016282,-0.0154902,0.0552446,-0.3879881,0.6844789,-0.032
 5167,0.2284334,0.6629811,-0.1647087,0.1838567,0.5214616,0.0057643,-0.1
 524198,-1.0956978,0.0411759,-0.1990634,0.2460206,0.0873876,0.0397007,-
 0.4490943,0.0091125,0.0591094\Polar=83.6595781,1.6822109,50.3294064,2.
 9309675,0.5770596,45.1184472\PG=C01 [X(C3H9O2)]\NImag=1\\0.52904895,0.
 02897651,0.51169120,0.00152853,-0.03907140,0.54526884,-0.24711780,0.08
 254133,-0.05575166,0.27145636,0.08827415,-0.07760163,0.02569103,-0.096
 58995,0.08712523,-0.05055119,0.02176033,-0.05755069,0.05842422,-0.0225
 2076,0.06103677,-0.04666135,-0.00310961,0.00170100,0.00053098,0.008249
 29,-0.02883525,0.04643602,-0.00305206,-0.06950163,0.07318177,-0.000943
 69,-0.00405624,0.01138221,0.00007303,0.07420370,0.00338023,0.07138288,
 -0.29525458,0.00006699,0.00211211,-0.00666917,-0.00454658,-0.07535117,
 0.32265095,-0.16959437,-0.13350095,0.02299176,-0.02036406,-0.02136656,
 0.00416620,-0.00015649,0.00147141,-0.00008881,0.18357965,-0.13181586,-
 0.18305894,0.02366041,0.00865273,0.00933162,-0.00159413,-0.00545582,-0
 .00643028,0.00077868,0.14404759,0.20371229,0.02243178,0.02277521,-0.05
 420437,-0.00575719,-0.00576675,0.00027039,0.02242460,0.02236750,-0.002
 43526,-0.02579434,-0.02195742,0.05346686,-0.05932878,0.00990752,0.0237
 4997,-0.00650850,0.02189769,0.01644195,-0.00205526,0.00150059,0.001037
 72,0.00592653,-0.01697978,-0.01470916,0.21906080,0.01601005,-0.1656778
 5,-0.06443521,0.00577346,-0.01419253,-0.00836291,-0.00102903,0.0083985
 7,0.00462266,0.00762831,-0.02198375,-0.01469159,0.12581187,0.51178237,
 0.02939536,-0.06586504,-0.13058734,0.00162320,0.00192573,0.00236242,0.
 00872200,-0.02878547,-0.01897515,-0.00196251,0.00346175,0.00391188,-0.
 09559653,-0.00845734,0.53655577,0.00811096,0.01028420,-0.00146678,-0.0
 0005409,-0.00109474,-0.00046956,-0.00018659,-0.00050278,-0.00008593,-0
 .00002421,0.00135252,0.00148802,-0.10954298,-0.13885122,0.03745428,0.1
 1398773,-0.01567178,-0.01696187,0.00501208,0.00033024,0.00055820,0.000
 42789,0.00028474,0.00122849,-0.00018092,0.00235683,-0.00276230,-0.0033
 6136,-0.12496744,-0.23670535,0.03973716,0.13790092,0.25568037,-0.01068
 622,-0.01452369,0.00543504,0.00017999,-0.00020682,0.00014620,-0.000754
 85,0.00088497,0.00104362,0.00084917,-0.00409779,-0.00152457,0.03358706
 ,0.03773856,-0.06029791,-0.03579205,-0.04167356,0.05787821,0.00054317,
 -0.00230307,0.00981644,0.00060661,-0.00064191,-0.00104490,0.00115252,0
 .00185191,0.00024400,0.00032125,0.00096372,-0.00040188,-0.02934405,-0.
 01162109,0.02387977,0.00152056,-0.00394524,0.01710772,0.03173174,0.002
 17108,0.00871634,-0.02643119,0.00004055,0.00063832,0.00075050,0.001453
 54,-0.00423551,-0.00349992,-0.00066328,0.00107147,0.00088120,-0.014214
 54,-0.06482016,0.05723683,-0.00087471,-0.00237204,0.02404300,0.0110705
 5,0.06254397,-0.00001335,0.00561662,-0.01360344,0.00040197,-0.00001976
 ,0.00030299,0.00106063,-0.00343704,-0.00050021,-0.00038205,0.00000502,
 0.00061561,0.03770453,0.05385499,-0.31343057,-0.00120317,-0.00046534,-
 0.00241324,-0.03642820,-0.05698825,0.33371212,0.00081327,-0.00032055,0
 .00053191,0.00013089,-0.00023252,-0.00030342,-0.00006780,0.00001996,-0
 .00017208,-0.00050570,0.00044345,0.00002771,-0.00507833,0.00197609,0.0
 0012596,0.00075393,-0.00015801,0.00019648,0.00110842,-0.00032311,0.000
 01206,0.55026904,0.00081255,0.00003080,0.00042489,0.00006119,-0.000279
 26,-0.00015667,-0.00021321,-0.00003279,0.00005638,-0.00016764,0.000098
 14,-0.00026940,-0.00444721,0.00218109,-0.00197616,0.00078154,-0.000379
 35,0.00041442,0.00065664,-0.00008542,0.00041152,-0.01988290,0.58942144
 ,-0.00232293,0.00041947,-0.00128236,-0.00007296,0.00064652,0.00050190,
 0.00040451,-0.00000458,-0.00009145,0.00051253,-0.00001814,0.00066829,0
 .00822489,-0.00407300,0.00383869,-0.00127086,0.00089162,-0.00081522,-0
 .00114775,0.00020048,-0.00096467,0.05724761,0.06441367,0.50594741,-0.0
 0014105,0.00009255,-0.00003482,0.00004247,0.00002969,0.00005691,0.0000
 3717,0.00002146,0.00002479,0.00001647,0.00008493,0.00004015,0.00025258
 ,0.00014463,-0.00047067,0.00010135,-0.00007820,-0.00004251,-0.00063003
 ,-0.00006910,0.00006983,-0.17170380,0.03114477,-0.12782644,0.17659112,
 0.00000380,0.00013840,-0.00005087,-0.00000405,0.00000703,0.00000077,-0
 .00000301,-0.00005905,-0.00001599,0.00001849,-0.00004318,-0.00001212,0
 .00059855,-0.00011929,0.00018769,0.00001955,-0.00002524,-0.00011469,-0
 .00043916,0.00010210,-0.00016186,0.03112365,-0.06003154,0.02691465,-0.
 03243150,0.05694784,0.00075173,0.00002559,0.00025083,-0.00006649,-0.00
 021292,-0.00013823,-0.00017448,-0.00007977,0.00003852,0.00000575,-0.00
 021462,-0.00029479,-0.00259423,0.00117697,-0.00060870,0.00029663,-0.00
 026995,0.00022645,0.00048475,-0.00004785,0.00035327,-0.12296181,0.0305
 1315,-0.17565425,0.13190484,-0.03917069,0.20646379,-0.00029304,-0.0000
 6718,-0.00007328,0.00002350,0.00009488,0.00006902,0.00003744,0.0000124
 0,0.00001911,0.00000318,0.00001263,-0.00001640,0.00049213,-0.00027129,
 0.00002610,-0.00011135,0.00007955,0.00002101,-0.00002170,0.00003861,0.
 00004473,-0.09928218,-0.09387711,-0.03371887,-0.00787382,-0.01778759,-
 0.00618880,0.10566782,-0.00028130,0.00007328,-0.00011078,0.00001354,0.
 00006964,0.00007063,0.00003242,-0.00001529,0.00000192,0.00002153,-0.00
 000320,0.00002353,0.00059831,-0.00023281,0.00016404,-0.00007514,0.0000
 7717,-0.00005038,-0.00011841,0.00002656,-0.00005165,-0.09699867,-0.241
 12870,-0.06868426,0.00383000,0.00701976,0.00140580,0.11220282,0.263025
 57,0.00022895,-0.00013222,0.00011171,-0.00000555,-0.00005856,-0.000070
 56,-0.00002551,0.00003580,0.00000945,-0.00001525,-0.00002078,-0.000025
 03,-0.00051654,0.00013706,-0.00018399,0.00001737,-0.00007051,0.0000834
 2,0.00023770,-0.00004793,0.00011493,-0.03974140,-0.07865603,-0.0792172
 8,-0.00838603,-0.01999775,-0.00470218,0.03460539,0.07239772,0.08070386
 ,-0.00002961,0.00002199,-0.00006702,-0.00003780,0.00003883,0.00002471,
 0.00001133,-0.00001030,0.00001136,0.00009451,-0.00009221,-0.00002607,0
 .00082919,-0.00034365,0.00006021,-0.00015030,0.00002187,-0.00002795,-0
 .00020990,0.00008712,0.00001888,-0.17160990,0.12131846,0.04429715,-0.0
 1355804,0.01620226,0.00486014,0.01217504,-0.00969617,-0.00512863,0.185
 15152,0.00016636,-0.00015935,0.00007439,0.00000059,-0.00002684,-0.0000
 5728,0.00001437,0.00002014,-0.00002067,-0.00002018,0.00002101,0.000018
 51,-0.00053452,0.00019572,-0.00023909,0.00007435,-0.00002350,0.0000286
 8,0.00004549,-0.00003166,-0.00001207,0.12624726,-0.17661353,-0.0532071
 3,0.00232965,-0.00237525,-0.00226086,0.01863874,-0.01510728,-0.0059566
 8,-0.13335814,0.18124200,0.00033407,0.00003724,0.00017963,0.00002271,-
 0.00010322,-0.00003457,-0.00012310,-0.00004189,0.00003872,-0.00009282,
 -0.00001030,-0.00018545,-0.00120843,0.00059970,-0.00058737,0.00019628,
 -0.00012123,0.00013370,0.00017298,0.00001519,0.00015109,0.04353898,-0.
 04586599,-0.06683125,-0.01647123,0.01561159,0.00823953,0.00592909,-0.0
 0635761,-0.00179423,-0.06041906,0.05269453,0.08129671,-0.00117003,0.00
 028588,-0.00132651,-0.00047147,0.00043853,0.00035035,0.00004019,0.0001
 6258,0.00037776,-0.00019370,-0.00032772,0.00030102,0.01142247,-0.00537
 117,0.00149968,-0.00172669,0.00101013,-0.00099224,-0.00244479,0.000531
 32,-0.00067461,-0.09123060,-0.00563423,0.06873244,0.01390259,0.0002639
 6,-0.00745797,-0.00938433,-0.00720421,0.01341933,-0.01460170,-0.014234
 47,0.03132357,0.18020634,-0.00692854,0.00077170,-0.00238239,0.00071898
 ,0.00266137,0.00227962,0.00009658,0.00016279,0.00071323,0.00063293,0.0
 0174049,0.00031910,0.03685411,-0.01469597,0.00849098,-0.00461536,0.002
 15403,-0.00185211,-0.00548064,0.00121062,-0.00123480,-0.01614322,-0.07
 002303,0.03279698,-0.00848932,-0.00474594,0.01379770,-0.01728421,-0.01
 420161,0.02607314,0.00211845,0.00883594,-0.01377324,0.11685195,0.26560
 821,-0.00030673,0.00021311,0.00013625,0.00011170,0.00022790,0.00019839
 ,-0.00017412,-0.00001264,0.00019641,-0.00006104,0.00017419,-0.00022121
 ,0.00418807,-0.00158177,-0.00019397,-0.00047835,0.00007192,-0.00031679
 ,-0.00099108,0.00003438,-0.00000297,0.05028530,0.00087618,-0.19800006,
 0.02015803,0.01622739,-0.03675614,-0.00424397,-0.00267416,0.00780540,0
 .01773792,0.00776032,-0.02224627,-0.07574303,0.01016335,0.31162522,0.0
 1008669,-0.00462054,0.00137041,-0.00072098,-0.00200751,-0.00182344,0.0
 0002720,-0.00015928,-0.00028502,-0.00048374,-0.00065443,-0.00007026,-0
 .13218142,0.04656667,-0.03781017,0.00882537,-0.00401603,0.00371996,0.0
 0897001,-0.00163494,0.00115198,-0.01943283,-0.03814137,-0.00226030,0.0
 0342682,0.00385811,-0.00268388,-0.00148735,-0.00201918,0.00514026,0.00
 346587,0.00001989,-0.00490917,-0.05707941,-0.03387587,0.00131320,0.112
 34972,0.00632563,0.00000558,0.00302398,-0.00104207,-0.00217305,-0.0020
 6090,-0.00007962,-0.00008302,-0.00075066,-0.00072856,-0.00138737,-0.00
 031915,-0.00666333,0.00824373,0.00110705,0.00341779,-0.00060096,0.0007
 1667,0.00408863,-0.00108334,0.00065192,-0.02258016,-0.04154294,0.00039
 197,0.00264172,0.00271969,-0.00459459,-0.00184708,0.00056355,0.0057443
 5,0.00331894,0.00441103,-0.00255936,-0.06252595,-0.18792454,-0.0236591
 7,0.02910380,0.26824548,0.00582606,-0.00205440,0.00123351,-0.00059118,
 -0.00100737,-0.00094052,-0.00054358,0.00032233,0.00019708,-0.00041649,
 -0.00021522,-0.00020534,-0.05439240,0.01898592,-0.01253605,0.00370246,
 -0.00206164,0.00156863,0.00410972,-0.00100508,0.00172843,0.00647984,0.
 02700884,0.01359023,0.00158625,0.00071628,0.00146866,0.00366113,0.0036
 3405,-0.00237041,-0.00071160,0.00113304,0.00117718,-0.01642775,-0.0518
 3251,-0.05519221,0.00973314,0.00730415,0.04759990,-0.02426701,0.011811
 92,-0.00296994,0.00248390,0.00291013,0.00349440,0.00085464,-0.00044524
 ,0.00001647,0.00138071,-0.00023172,0.00006202,0.10605564,-0.04642363,0
 .03305333,-0.02150368,0.00685241,-0.00736559,-0.01330381,0.00238690,-0
 .00176324,0.00583559,0.00758854,-0.01079901,-0.00046383,-0.00142304,0.
 00382381,0.00005467,-0.00030555,0.00016990,-0.00153021,0.00061061,0.00
 170613,-0.02726884,-0.06445586,-0.01179591,0.06423405,0.04657025,0.037
 98440,-0.09256182,0.01500942,-0.00846605,0.00141327,0.00044714,-0.0020
 6187,-0.00191930,-0.00031366,0.00040011,0.00015148,0.00027006,-0.00030
 600,-0.00000725,-0.02936183,-0.01237379,-0.00698811,-0.00781692,0.0001
 3235,-0.00130728,0.00587258,-0.00168124,0.00183070,-0.00317127,-0.0016
 1489,-0.00068825,0.00074872,0.00046467,-0.00006796,0.00005482,-0.00016
 665,0.00055238,0.00037257,-0.00038844,-0.00012541,-0.02424658,0.008445
 94,-0.00782100,0.00758067,-0.04939383,-0.00092840,0.03455429,0.0670096
 8,0.00000370,-0.00058370,-0.00013303,0.00141426,-0.00070713,0.00058468
 ,0.00086472,-0.00046201,-0.00024894,0.00028791,0.00004836,0.00016300,0
 .04408309,-0.01551405,-0.00926770,-0.00238834,0.00206385,-0.00114756,-
 0.01603927,0.00485864,-0.00606335,0.00473288,0.00280519,-0.00168999,-0
 .00060912,-0.00013440,0.00111325,-0.00013425,0.00023114,-0.00046511,-0
 .00063003,0.00004431,0.00046258,-0.01338205,-0.02355905,-0.00703204,0.
 02741329,0.01500373,0.00268090,-0.04561679,0.01590513,0.02104332\\-0.0
 0000034,-0.00000078,0.00000118,0.00000026,-0.00000036,0.00000016,0.000
 00002,0.00000010,0.00000011,0.00000178,0.00000079,-0.00000154,-0.00000
 132,-0.00000174,-0.00000105,0.00000055,-0.00000067,-0.00000147,0.00000
 126,0.00000046,0.00000066,-0.00000098,0.00000085,0.00000026,-0.0000010
 9,0.00000055,-0.00000003,-0.00000029,0.00000044,-0.00000019,0.00000004
 ,0.00000058,0.00000005,-0.00000102,-0.00000275,-0.00000254,0.00000012,
 0.00000295,0.00000267,0.00000101,-0.00000043,0.00000174\\\@


 TOM, TOM, THE BURGLAR'S SON
 STOLE A MACHINE AND AWAY HE RUN
 THE JOB WAS NEAT, BUT TOM GOT BEAT
 BY THE TIME HE GOT HOME IT WAS OBSOLETE.
 Job cpu time:       0 days 22 hours 40 minutes 30.1 seconds.
 Elapsed time:       0 days  0 hours 35 minutes  6.0 seconds.
 File lengths (MBytes):  RWF=  37353 Int=      0 D2E=      0 Chk=     13 Scr=      1
 Normal termination of Gaussian 16 at Wed Jun  5 17:29:13 2019.
