 Entering Gaussian System, Link 0=g16
 Initial command:
 /ichec/packages/gaussian/16b01/l1.exe "/localscratch/341085/Gau-40795.inp" -scrdir="/localscratch/341085/"
 Entering Link 1 = /ichec/packages/gaussian/16b01/l1.exe PID=     41585.
  
 Copyright (c) 1988-2017, Gaussian, Inc.  All Rights Reserved.
  
 This is part of the Gaussian(R) 16 program.  It is based on
 the Gaussian(R) 09 system (copyright 2009, Gaussian, Inc.),
 the Gaussian(R) 03 system (copyright 2003, Gaussian, Inc.),
 the Gaussian(R) 98 system (copyright 1998, Gaussian, Inc.),
 the Gaussian(R) 94 system (copyright 1995, Gaussian, Inc.),
 the Gaussian 92(TM) system (copyright 1992, Gaussian, Inc.),
 the Gaussian 90(TM) system (copyright 1990, Gaussian, Inc.),
 the Gaussian 88(TM) system (copyright 1988, Gaussian, Inc.),
 the Gaussian 86(TM) system (copyright 1986, Carnegie Mellon
 University), and the Gaussian 82(TM) system (copyright 1983,
 Carnegie Mellon University). Gaussian is a federally registered
 trademark of Gaussian, Inc.
  
 This software contains proprietary and confidential information,
 including trade secrets, belonging to Gaussian, Inc.
  
 This software is provided under written license and may be
 used, copied, transmitted, or stored only in accord with that
 written license.
  
 The following legend is applicable only to US Government
 contracts under FAR:
  
                    RESTRICTED RIGHTS LEGEND
  
 Use, reproduction and disclosure by the US Government is
 subject to restrictions as set forth in subparagraphs (a)
 and (c) of the Commercial Computer Software - Restricted
 Rights clause in FAR 52.227-19.
  
 Gaussian, Inc.
 340 Quinnipiac St., Bldg. 40, Wallingford CT 06492
  
  
 ---------------------------------------------------------------
 Warning -- This program may not be used in any manner that
 competes with the business of Gaussian, Inc. or will provide
 assistance to any competitor of Gaussian, Inc.  The licensee
 of this program is prohibited from giving any competitor of
 Gaussian, Inc. access to this program.  By using this program,
 the user acknowledges that Gaussian, Inc. is engaged in the
 business of creating and licensing software in the field of
 computational chemistry and represents and warrants to the
 licensee that it is not a competitor of Gaussian, Inc. and that
 it will not use this program in any manner prohibited above.
 ---------------------------------------------------------------
  

 Cite this work as:
 Gaussian 16, Revision B.01,
 M. J. Frisch, G. W. Trucks, H. B. Schlegel, G. E. Scuseria, 
 M. A. Robb, J. R. Cheeseman, G. Scalmani, V. Barone, 
 G. A. Petersson, H. Nakatsuji, X. Li, M. Caricato, A. V. Marenich, 
 J. Bloino, B. G. Janesko, R. Gomperts, B. Mennucci, H. P. Hratchian, 
 J. V. Ortiz, A. F. Izmaylov, J. L. Sonnenberg, D. Williams-Young, 
 F. Ding, F. Lipparini, F. Egidi, J. Goings, B. Peng, A. Petrone, 
 T. Henderson, D. Ranasinghe, V. G. Zakrzewski, J. Gao, N. Rega, 
 G. Zheng, W. Liang, M. Hada, M. Ehara, K. Toyota, R. Fukuda, 
 J. Hasegawa, M. Ishida, T. Nakajima, Y. Honda, O. Kitao, H. Nakai, 
 T. Vreven, K. Throssell, J. A. Montgomery, Jr., J. E. Peralta, 
 F. Ogliaro, M. J. Bearpark, J. J. Heyd, E. N. Brothers, K. N. Kudin, 
 V. N. Staroverov, T. A. Keith, R. Kobayashi, J. Normand, 
 K. Raghavachari, A. P. Rendell, J. C. Burant, S. S. Iyengar, 
 J. Tomasi, M. Cossi, J. M. Millam, M. Klene, C. Adamo, R. Cammi, 
 J. W. Ochterski, R. L. Martin, K. Morokuma, O. Farkas, 
 J. B. Foresman, and D. J. Fox, Gaussian, Inc., Wallingford CT, 2016.
 
 ******************************************
 Gaussian 16:  ES64L-G16RevB.01 20-Dec-2017
                 7-Jun-2019 
 ******************************************
 %mem=80GB
 %nproc=40
 Will use up to   40 processors via shared memory.
 ----------------------------------------------------------------------
 # opt=(calcfc,ts,noeigentest,maxcyc=500) freq=noraman uB2PLYPD3/cc-pvt
 z
 ----------------------------------------------------------------------
 1/5=1,6=500,10=4,11=1,18=20,38=1/1,3;
 2/9=110,12=2,17=6,18=5,40=1/2;
 3/5=16,6=1,11=2,25=1,30=1,71=2,74=-60,116=2,140=1/1,2,3;
 4//1;
 5/5=2,38=5/2;
 8/6=3,8=1,10=1,19=11,30=-1/1;
 9/15=3,16=-3/6;
 11/6=1,8=1,15=11,17=12,24=-1,27=1,28=-2,29=300,32=6,42=3/1,2,10;
 10/6=2,21=1/2;
 8/6=4,8=1,10=1,19=11,30=-1/11,4;
 10/5=1,20=4/2;
 11/12=2,14=11,16=1,17=2,28=-2,42=3,76=2/2,10,12;
 6/7=2,8=2,9=2,10=2/1;
 7/10=1,12=2,25=1,44=2/1,2,3,16;
 1/5=1,6=500,10=4,11=1,18=20/3(2);
 2/9=110/2;
 99//99;
 2/9=110/2;
 3/5=16,6=1,11=2,25=1,30=1,71=1,74=-60,116=2/1,2,3;
 4/5=5,16=3,69=1/1;
 5/5=2,38=5/2;
 8/6=4,10=1/1;
 9/15=2,16=-3/6;
 10/5=1/2;
 7/12=2/1,2,3,16;
 1/5=1,6=500,11=1,18=20/3(-8);
 2/9=110/2;
 6/7=2,8=2,9=2,10=2/1;
 99/9=10/99;
 -------------------
 Title Card Required
 -------------------
 Symbolic Z-matrix:
 Charge =  0 Multiplicity = 2
 C                     1.31578  -0.13486   0.07669 
 C                     1.10103  -1.40831   0.29394 
 C                    -2.13371  -0.23501  -0.79687 
 H                    -1.29019  -0.50406  -1.43721 
 H                    -2.84359  -1.05879  -0.74859 
 H                    -2.62051   0.66248  -1.17758 
 O                    -1.69437  -0.0296    0.53137 
 O                    -0.84649   1.0649    0.53791 
 H                     0.17176   0.61032   0.34426 
 H                     1.88685  -2.1456    0.13945 
 H                     0.13848  -1.76544   0.6433 
 C                     2.47536   0.66304  -0.3785 
 H                     2.76903   1.38976   0.37907 
 H                     3.32652   0.00682  -0.57924 
 H                     2.23778   1.21292  -1.28928 
 
 Add virtual bond connecting atoms H9         and C1         Dist= 2.63D+00.

 GradGradGradGradGradGradGradGradGradGradGradGradGradGradGradGradGradGrad
 Berny optimization.
 Initialization pass.
                           ----------------------------
                           !    Initial Parameters    !
                           ! (Angstroms and Degrees)  !
 --------------------------                            --------------------------
 ! Name  Definition              Value          Derivative Info.                !
 --------------------------------------------------------------------------------
 ! R1    R(1,2)                  1.3096         calculate D2E/DX2 analytically  !
 ! R2    R(1,9)                  1.3913         calculate D2E/DX2 analytically  !
 ! R3    R(1,12)                 1.4794         calculate D2E/DX2 analytically  !
 ! R4    R(2,10)                 1.0886         calculate D2E/DX2 analytically  !
 ! R5    R(2,11)                 1.0845         calculate D2E/DX2 analytically  !
 ! R6    R(3,4)                  1.0927         calculate D2E/DX2 analytically  !
 ! R7    R(3,5)                  1.0885         calculate D2E/DX2 analytically  !
 ! R8    R(3,6)                  1.0897         calculate D2E/DX2 analytically  !
 ! R9    R(3,7)                  1.414          calculate D2E/DX2 analytically  !
 ! R10   R(7,8)                  1.3845         calculate D2E/DX2 analytically  !
 ! R11   R(8,9)                  1.1318         calculate D2E/DX2 analytically  !
 ! R12   R(12,13)                1.0901         calculate D2E/DX2 analytically  !
 ! R13   R(12,14)                1.0933         calculate D2E/DX2 analytically  !
 ! R14   R(12,15)                1.0901         calculate D2E/DX2 analytically  !
 ! A1    A(2,1,9)              110.7375         calculate D2E/DX2 analytically  !
 ! A2    A(2,1,12)             134.7541         calculate D2E/DX2 analytically  !
 ! A3    A(9,1,12)             114.5084         calculate D2E/DX2 analytically  !
 ! A4    A(1,2,10)             121.1106         calculate D2E/DX2 analytically  !
 ! A5    A(1,2,11)             121.2801         calculate D2E/DX2 analytically  !
 ! A6    A(10,2,11)            117.6065         calculate D2E/DX2 analytically  !
 ! A7    A(4,3,5)              110.0658         calculate D2E/DX2 analytically  !
 ! A8    A(4,3,6)              110.0551         calculate D2E/DX2 analytically  !
 ! A9    A(4,3,7)              110.2666         calculate D2E/DX2 analytically  !
 ! A10   A(5,3,6)              110.3326         calculate D2E/DX2 analytically  !
 ! A11   A(5,3,7)              105.7176         calculate D2E/DX2 analytically  !
 ! A12   A(6,3,7)              110.3249         calculate D2E/DX2 analytically  !
 ! A13   A(3,7,8)              108.032          calculate D2E/DX2 analytically  !
 ! A14   A(7,8,9)              103.4522         calculate D2E/DX2 analytically  !
 ! A15   A(1,12,13)            110.9104         calculate D2E/DX2 analytically  !
 ! A16   A(1,12,14)            110.0591         calculate D2E/DX2 analytically  !
 ! A17   A(1,12,15)            110.9964         calculate D2E/DX2 analytically  !
 ! A18   A(13,12,14)           108.5425         calculate D2E/DX2 analytically  !
 ! A19   A(13,12,15)           107.6422         calculate D2E/DX2 analytically  !
 ! A20   A(14,12,15)           108.6036         calculate D2E/DX2 analytically  !
 ! A21   L(1,9,8,4,-1)         173.1866         calculate D2E/DX2 analytically  !
 ! A22   L(1,9,8,4,-2)         174.1055         calculate D2E/DX2 analytically  !
 ! D1    D(9,1,2,10)          -179.8452         calculate D2E/DX2 analytically  !
 ! D2    D(9,1,2,11)            -0.4649         calculate D2E/DX2 analytically  !
 ! D3    D(12,1,2,10)            0.176          calculate D2E/DX2 analytically  !
 ! D4    D(12,1,2,11)          179.5563         calculate D2E/DX2 analytically  !
 ! D5    D(2,1,8,7)            -15.3869         calculate D2E/DX2 analytically  !
 ! D6    D(12,1,8,7)           163.336          calculate D2E/DX2 analytically  !
 ! D7    D(2,1,12,13)         -119.4223         calculate D2E/DX2 analytically  !
 ! D8    D(2,1,12,14)            0.705          calculate D2E/DX2 analytically  !
 ! D9    D(2,1,12,15)          120.9641         calculate D2E/DX2 analytically  !
 ! D10   D(9,1,12,13)           60.5995         calculate D2E/DX2 analytically  !
 ! D11   D(9,1,12,14)         -179.2733         calculate D2E/DX2 analytically  !
 ! D12   D(9,1,12,15)          -59.0142         calculate D2E/DX2 analytically  !
 ! D13   D(4,3,7,8)             64.6037         calculate D2E/DX2 analytically  !
 ! D14   D(5,3,7,8)           -176.4583         calculate D2E/DX2 analytically  !
 ! D15   D(6,3,7,8)            -57.1721         calculate D2E/DX2 analytically  !
 ! D16   D(3,7,8,9)            -89.2847         calculate D2E/DX2 analytically  !
 --------------------------------------------------------------------------------
 Trust Radius=3.00D-01 FncErr=1.00D-07 GrdErr=1.00D-07 EigMax=2.50D+02 EigMin=1.00D-04
 Number of steps in this run=    100 maximum allowed number of steps=    100.
 Search for a saddle point of order  1.
 GradGradGradGradGradGradGradGradGradGradGradGradGradGradGradGradGradGrad

                          Input orientation:                          
 ---------------------------------------------------------------------
 Center     Atomic      Atomic             Coordinates (Angstroms)
 Number     Number       Type             X           Y           Z
 ---------------------------------------------------------------------
      1          6           0        1.315776   -0.134864    0.076688
      2          6           0        1.101027   -1.408307    0.293944
      3          6           0       -2.133712   -0.235010   -0.796874
      4          1           0       -1.290188   -0.504059   -1.437214
      5          1           0       -2.843592   -1.058786   -0.748589
      6          1           0       -2.620509    0.662478   -1.177584
      7          8           0       -1.694367   -0.029599    0.531373
      8          8           0       -0.846491    1.064904    0.537908
      9          1           0        0.171763    0.610316    0.344257
     10          1           0        1.886854   -2.145598    0.139445
     11          1           0        0.138481   -1.765444    0.643300
     12          6           0        2.475363    0.663040   -0.378496
     13          1           0        2.769030    1.389759    0.379070
     14          1           0        3.326516    0.006821   -0.579240
     15          1           0        2.237783    1.212917   -1.289277
 ---------------------------------------------------------------------
                    Distance matrix (angstroms):
                    1          2          3          4          5
     1  C    0.000000
     2  C    1.309570   0.000000
     3  C    3.559790   3.609716   0.000000
     4  H    3.036322   3.087472   1.092683   0.000000
     5  H    4.339937   4.095004   1.088516   1.787454   0.000000
     6  H    4.207528   4.505927   1.089677   1.788287   1.787891
     7  O    3.046109   3.125930   1.414022   2.064899   2.004556
     8  O    2.515465   3.157391   2.264588   2.561175   3.186463
     9  H    1.391277   2.222814   2.707761   2.559838   3.615602
    10  H    2.091201   1.088573   4.548845   3.908209   4.934256
    11  H    2.089465   1.084477   3.095027   2.821476   3.365929
    12  C    1.479353   2.575161   4.714351   4.081958   5.602940
    13  H    2.127876   3.258628   5.297131   4.833496   6.226437
    14  H    2.119762   2.778100   5.469912   4.723460   6.263739
    15  H    2.128960   3.266438   4.631298   3.926381   5.592258
                    6          7          8          9         10
     6  H    0.000000
     7  O    2.063309   0.000000
     8  O    2.500400   1.384512   0.000000
     9  H    3.180488   1.981652   1.131809   0.000000
    10  H    5.471396   4.178062   4.235242   3.252468   0.000000
    11  H    4.101518   2.526859   2.998691   2.394738   1.858816
    12  C    5.158144   4.323686   3.469295   2.414896   2.916000
    13  H    5.656787   4.686116   3.633559   2.711925   3.651630
    14  H    6.012903   5.142378   4.447645   3.342083   2.687386
    15  H    4.890650   4.507817   3.587932   2.701851   3.666609
                   11         12         13         14         15
    11  H    0.000000
    12  C    3.521735   0.000000
    13  H    4.116420   1.090077   0.000000
    14  H    3.846959   1.093336   1.772475   0.000000
    15  H    4.124628   1.090106   1.759795   1.773178   0.000000
 Stoichiometry    C4H9O2(2)
 Framework group  C1[X(C4H9O2)]
 Deg. of freedom    39
 Full point group                 C1      NOp   1
 Largest Abelian subgroup         C1      NOp   1
 Largest concise Abelian subgroup C1      NOp   1
                         Standard orientation:                         
 ---------------------------------------------------------------------
 Center     Atomic      Atomic             Coordinates (Angstroms)
 Number     Number       Type             X           Y           Z
 ---------------------------------------------------------------------
      1          6           0        1.315776    0.134864   -0.076688
      2          6           0        1.101027    1.408307   -0.293944
      3          6           0       -2.133712    0.235010    0.796874
      4          1           0       -1.290188    0.504059    1.437214
      5          1           0       -2.843592    1.058786    0.748589
      6          1           0       -2.620509   -0.662478    1.177584
      7          8           0       -1.694367    0.029599   -0.531373
      8          8           0       -0.846491   -1.064904   -0.537908
      9          1           0        0.171763   -0.610316   -0.344257
     10          1           0        1.886854    2.145598   -0.139445
     11          1           0        0.138481    1.765444   -0.643300
     12          6           0        2.475363   -0.663040    0.378496
     13          1           0        2.769030   -1.389759   -0.379070
     14          1           0        3.326516   -0.006821    0.579240
     15          1           0        2.237783   -1.212917    1.289277
 ---------------------------------------------------------------------
 Rotational constants (GHZ):           5.7724046           1.7352077           1.5472950
 Standard basis: CC-pVTZ (5D, 7F)
 There are   345 symmetry adapted cartesian basis functions of A   symmetry.
 There are   306 symmetry adapted basis functions of A   symmetry.
   306 basis functions,   465 primitive gaussians,   345 cartesian basis functions
    25 alpha electrons       24 beta electrons
       nuclear repulsion energy       237.5875646877 Hartrees.
 NAtoms=   15 NActive=   15 NUniq=   15 SFac= 1.00D+00 NAtFMM=   60 NAOKFM=F Big=F
 Integral buffers will be    131072 words long.
 Raffenetti 2 integral format.
 Two-electron integral symmetry is turned on.
 Nuclear repulsion after empirical dispersion term =      237.5802398608 Hartrees.
 One-electron integrals computed using PRISM.
 NBasis=   306 RedAO= T EigKep=  4.11D-04  NBF=   306
 NBsUse=   306 1.00D-06 EigRej= -1.00D+00 NBFU=   306
 ExpMin= 1.03D-01 ExpMax= 1.53D+04 ExpMxC= 5.22D+02 IAcc=3 IRadAn=         5 AccDes= 0.00D+00
 Harris functional with IExCor=  419 and IRadAn=       5 diagonalized for initial guess.
 HarFok:  IExCor=  419 AccDes= 0.00D+00 IRadAn=         5 IDoV= 1 UseB2=F ITyADJ=14
 ICtDFT=  3500011 ScaDFX=  1.000000  1.000000  1.000000  1.000000
 FoFCou: FMM=F IPFlag=           0 FMFlag=      100000 FMFlg1=           0
         NFxFlg=           0 DoJE=T BraDBF=F KetDBF=T FulRan=T
         wScrn=  0.000000 ICntrl=       500 IOpCl=  0 I1Cent=   200000004 NGrid=           0
         NMat0=    1 NMatS0=      1 NMatT0=    0 NMatD0=    1 NMtDS0=    0 NMtDT0=    0
 Petite list used in FoFCou.
 Initial guess <Sx>= 0.0000 <Sy>= 0.0000 <Sz>= 0.5000 <S**2>= 0.7500 S= 0.5000
 Requested convergence on RMS density matrix=1.00D-08 within 128 cycles.
 Requested convergence on MAX density matrix=1.00D-06.
 Requested convergence on             energy=1.00D-06.
 No special actions if energy rises.
 Integral accuracy reduced to 1.0D-05 until final iterations.
 Initial convergence to 1.0D-05 achieved.  Increase integral accuracy.
 SCF Done:  E(UB2PLYPD3) =  -307.569075147     A.U. after   22 cycles
            NFock= 22  Conv=0.56D-08     -V/T= 2.0041
 <Sx>= 0.0000 <Sy>= 0.0000 <Sz>= 0.5000 <S**2>= 0.7770 S= 0.5134
 <L.S>=  0.00000000000    
 Annihilation of the first spin contaminant:
 S**2 before annihilation     0.7770,   after     0.7505
 DoSCS=T DFT=T ScalE2(SS,OS)=  0.270000  0.270000
 ExpMin= 1.03D-01 ExpMax= 1.53D+04 ExpMxC= 5.22D+02 IAcc=3 IRadAn=         5 AccDes= 0.00D+00
 HarFok:  IExCor=  205 AccDes= 0.00D+00 IRadAn=         5 IDoV=-2 UseB2=F ITyADJ=14
 ICtDFT= 12500011 ScaDFX=  1.000000  1.000000  1.000000  1.000000
 Range of M.O.s used for correlation:     7   306
 NBasis=   306 NAE=    25 NBE=    24 NFC=     6 NFV=     0
 NROrb=    300 NOA=    19 NOB=    18 NVA=   281 NVB=   282

 **** Warning!!: The largest alpha MO coefficient is  0.12026170D+02


 **** Warning!!: The largest beta MO coefficient is  0.12026077D+02

 DoSCS=T DFT=T ScalE2(SS,OS)=  0.270000  0.270000
 Disk-based method using ON**2 memory for 19 occupieds at a time.
 Permanent disk used for amplitudes=    70282596 words.
 Estimated scratch disk usage=  1349334792 words.
 Actual    scratch disk usage=  1304678152 words.
 JobTyp=2 Pass  1:  I=   7 to  25 NPSUse= 40 ParTrn=T ParDer=T DoDerP=T.
 (rs|ai) integrals will be sorted in core.
 Actual    scratch disk usage=  1304678152 words.
 JobTyp=3 Pass  1:  I=   7 to  24 NPSUse= 40 ParTrn=T ParDer=T DoDerP=T.
 (rs|ai) integrals will be sorted in core.
 Spin components of T(2) and E(2):
     alpha-alpha T2 =       0.6438218563D-01 E2=     -0.4667984895D-01
     alpha-beta  T2 =       0.3982732775D+00 E2=     -0.2900202101D+00
     beta-beta   T2 =       0.7110292492D-01 E2=     -0.4604733863D-01
 (S**2,0)=  0.77699D+00           (S**2,1)=  0.74806D+00
 Scaling Projection term by:   0.270000
 E(PUHF)=      -0.30757559173D+03        E(PMP2)=      -0.30795264940D+03
 E2(B2PLYPD3) =    -0.3827473977D+00 E(B2PLYPD3) =    -0.30795182254448D+03
 G2DrvN: will do    16 centers at a time, making    1 passes.
 Calling FoFCou, ICntrl=  3107 FMM=F I1Cent=   0 AccDes= 0.00D+00.
 End of G2Drv F.D. properties file   721 does not exist.
 End of G2Drv F.D. properties file   722 does not exist.
 End of G2Drv F.D. properties file   788 does not exist.
          IDoAtm=111111111111111
          Differentiating once with respect to electric field.
                with respect to dipole field.
          Differentiating once with respect to nuclear coordinates.
 Keep R1 and R2 ints in memory in canonical form, NReq=2252448329.
          There are    48 degrees of freedom in the 1st order CPHF.  IDoFFX=6 NUNeed=    48.
     45 vectors produced by pass  0 Test12= 2.87D-14 2.08D-09 XBig12= 7.74D+01 5.31D+00.
 AX will form    45 AO Fock derivatives at one time.
     45 vectors produced by pass  1 Test12= 2.87D-14 2.08D-09 XBig12= 8.29D+00 5.24D-01.
     45 vectors produced by pass  2 Test12= 2.87D-14 2.08D-09 XBig12= 3.13D-01 9.68D-02.
     45 vectors produced by pass  3 Test12= 2.87D-14 2.08D-09 XBig12= 6.21D-03 8.59D-03.
     45 vectors produced by pass  4 Test12= 2.87D-14 2.08D-09 XBig12= 9.65D-05 1.16D-03.
     45 vectors produced by pass  5 Test12= 2.87D-14 2.08D-09 XBig12= 1.18D-06 1.02D-04.
     45 vectors produced by pass  6 Test12= 2.87D-14 2.08D-09 XBig12= 9.11D-09 8.99D-06.
     21 vectors produced by pass  7 Test12= 2.87D-14 2.08D-09 XBig12= 5.79D-11 7.45D-07.
      4 vectors produced by pass  8 Test12= 2.87D-14 2.08D-09 XBig12= 3.94D-13 6.82D-08.
      2 vectors produced by pass  9 Test12= 2.87D-14 2.08D-09 XBig12= 2.61D-15 5.89D-09.
 InvSVY:  IOpt=1 It=  1 EMax= 3.01D-15
 Solved reduced A of dimension   342 with    48 vectors.
 End of Minotr F.D. properties file   721 does not exist.
 End of Minotr F.D. properties file   722 does not exist.
 End of Minotr F.D. properties file   788 does not exist.
 MDV= 10737418240.
 DoSCS=T DFT=T ScalE2(SS,OS)=  0.270000  0.270000
 Form MO integral derivatives with frozen-active canonical formalism.
 Discarding MO integrals.
 Reordered first order wavefunction length =    283226920
 In DefCFB: NBatch=  1 ICI= 25 ICA=282 LFMax= 71
            Large arrays: LIAPS=  5824508040 LIARS=  1191802500 words.
 In DefCFB: NBatch=  1 ICI= 25 ICA=282 LFMax= 71
            Large arrays: LIAPS=  5824508040 LIARS=  1191802500 words.
 Semi-Direct transformation.
 ModeAB=           4 MOrb=            25 LenV=   10734617425
 LASXX=    339668775 LTotXX=   339668775 LenRXX=   684905625
 LTotAB=   345236850 MaxLAS=   421170750 LenRXY=           0
 NonZer=  1024574400 LenScr=  1542889472 LnRSAI=   421170750
 LnScr1=   634233856 LExtra=           0 Total=   3283199703
 MaxDsk=          -1 SrtSym=           T ITran=            4
 JobTyp=1 Pass  1:  I=   1 to  25.
 (rs|ai) integrals will be sorted in core.
 ModeAB=           4 MOrb=            24 LenV=   10734617425
 LASXX=    326802342 LTotXX=   326802342 LenRXX=   606843570
 LTotAB=   280041228 MaxLAS=   404323920 LenRXY=           0
 NonZer=   933645912 LenScr=  1405961216 LnRSAI=   404323920
 LnScr1=   608865280 LExtra=           0 Total=   3025993986
 MaxDsk=          -1 SrtSym=           T ITran=            4
 JobTyp=2 Pass  1:  I=   1 to  24.
 (rs|ai) integrals will be sorted in core.
 SymMOI:  orbitals are not symmetric.
 DoSCS=T DFT=T ScalE2(SS,OS)=  0.270000  0.270000
 Spin components of T(2) and E(2):
     alpha-alpha T2 =       0.6438218563D-01 E2=     -0.4667984895D-01
     alpha-beta  T2 =       0.3982732775D+00 E2=     -0.2900202101D+00
     beta-beta   T2 =       0.7110292492D-01 E2=     -0.4604733863D-01
 E2(B2PLYPD3) =    -0.3827473977D+00 E(B2PLYPD3) =    -0.30795182254448D+03
 (S**2,0)=  0.77699D+00           (S**2,1)=  0.74806D+00
 Scaling Projection term by:   0.270000
 E(PUHF)=      -0.30757559173D+03        E(PMP2)=      -0.30795264940D+03
          IDoAtm=111111111111111
          Differentiating once with respect to electric field.
                with respect to dipole field.
          Differentiating once with respect to nuclear coordinates.
 Keep R1 and R2 ints in memory in canonical form, NReq=2252584249.
          There are     1 degrees of freedom in the 1st order CPHF.  IDoFFX=0 NUNeed=     1.
 LinEq1:  Iter=  0 NonCon=     1 RMS=9.85D-04 Max=6.83D-02 NDo=     1
 AX will form     1 AO Fock derivatives at one time.
 LinEq1:  Iter=  1 NonCon=     1 RMS=3.59D-04 Max=1.57D-02 NDo=     1
 LinEq1:  Iter=  2 NonCon=     1 RMS=2.31D-04 Max=1.31D-02 NDo=     1
 LinEq1:  Iter=  3 NonCon=     1 RMS=1.31D-04 Max=8.96D-03 NDo=     1
 LinEq1:  Iter=  4 NonCon=     1 RMS=8.16D-05 Max=4.97D-03 NDo=     1
 LinEq1:  Iter=  5 NonCon=     1 RMS=3.39D-05 Max=8.52D-04 NDo=     1
 LinEq1:  Iter=  6 NonCon=     1 RMS=2.50D-05 Max=9.94D-04 NDo=     1
 LinEq1:  Iter=  7 NonCon=     1 RMS=9.89D-06 Max=3.12D-04 NDo=     1
 LinEq1:  Iter=  8 NonCon=     1 RMS=6.53D-06 Max=1.73D-04 NDo=     1
 LinEq1:  Iter=  9 NonCon=     1 RMS=2.65D-06 Max=5.24D-05 NDo=     1
 LinEq1:  Iter= 10 NonCon=     1 RMS=9.85D-07 Max=2.17D-05 NDo=     1
 LinEq1:  Iter= 11 NonCon=     1 RMS=4.02D-07 Max=5.14D-06 NDo=     1
 LinEq1:  Iter= 12 NonCon=     1 RMS=1.68D-07 Max=2.44D-06 NDo=     1
 LinEq1:  Iter= 13 NonCon=     1 RMS=7.97D-08 Max=1.90D-06 NDo=     1
 LinEq1:  Iter= 14 NonCon=     1 RMS=2.42D-08 Max=5.63D-07 NDo=     1
 LinEq1:  Iter= 15 NonCon=     1 RMS=7.02D-09 Max=1.83D-07 NDo=     1
 LinEq1:  Iter= 16 NonCon=     1 RMS=2.18D-09 Max=5.02D-08 NDo=     1
 LinEq1:  Iter= 17 NonCon=     1 RMS=8.53D-10 Max=2.39D-08 NDo=     1
 LinEq1:  Iter= 18 NonCon=     1 RMS=3.61D-10 Max=1.48D-08 NDo=     1
 LinEq1:  Iter= 19 NonCon=     1 RMS=1.23D-10 Max=5.80D-09 NDo=     1
 LinEq1:  Iter= 20 NonCon=     1 RMS=4.76D-11 Max=2.32D-09 NDo=     1
 LinEq1:  Iter= 21 NonCon=     0 RMS=1.54D-11 Max=6.26D-10 NDo=     1
 Linear equations converged to 1.000D-10 1.000D-09 after    21 iterations.
 End of Minotr F.D. properties file   721 does not exist.
 End of Minotr F.D. properties file   722 does not exist.
 End of Minotr F.D. properties file   788 does not exist.
 Symmetrizing basis deriv contribution to polar:
 IMax=3 JMax=2 DiffMx= 0.00D+00
 G2DrvN: will do    16 centers at a time, making    1 passes.
 Calling FoFCou, ICntrl=  3107 FMM=F I1Cent=   0 AccDes= 0.00D+00.
 End of G2Drv F.D. properties file   721 does not exist.
 End of G2Drv F.D. properties file   722 does not exist.
 End of G2Drv F.D. properties file   788 does not exist.
 DoSCS=T DFT=T ScalE2(SS,OS)=  0.270000  0.270000
 R2 and R3 integrals will be kept in memory, NReq=  3583069605.
 DD1Dir will call FoFMem   1 times, MxPair=      1776
 NAB=   600 NAA=   300 NBB=   276.
 Discarding MO integrals.

 **********************************************************************

            Population analysis using the SCF Density.

 **********************************************************************

 Orbital symmetries:
 Alpha Orbitals:
       Occupied  (A) (A) (A) (A) (A) (A) (A) (A) (A) (A) (A) (A)
                 (A) (A) (A) (A) (A) (A) (A) (A) (A) (A) (A) (A)
                 (A)
       Virtual   (A) (A) (A) (A) (A) (A) (A) (A) (A) (A) (A) (A)
                 (A) (A) (A) (A) (A) (A) (A) (A) (A) (A) (A) (A)
                 (A) (A) (A) (A) (A) (A) (A) (A) (A) (A) (A) (A)
                 (A) (A) (A) (A) (A) (A) (A) (A) (A) (A) (A) (A)
                 (A) (A) (A) (A) (A) (A) (A) (A) (A) (A) (A) (A)
                 (A) (A) (A) (A) (A) (A) (A) (A) (A) (A) (A) (A)
                 (A) (A) (A) (A) (A) (A) (A) (A) (A) (A) (A) (A)
                 (A) (A) (A) (A) (A) (A) (A) (A) (A) (A) (A) (A)
                 (A) (A) (A) (A) (A) (A) (A) (A) (A) (A) (A) (A)
                 (A) (A) (A) (A) (A) (A) (A) (A) (A) (A) (A) (A)
                 (A) (A) (A) (A) (A) (A) (A) (A) (A) (A) (A) (A)
                 (A) (A) (A) (A) (A) (A) (A) (A) (A) (A) (A) (A)
                 (A) (A) (A) (A) (A) (A) (A) (A) (A) (A) (A) (A)
                 (A) (A) (A) (A) (A) (A) (A) (A) (A) (A) (A) (A)
                 (A) (A) (A) (A) (A) (A) (A) (A) (A) (A) (A) (A)
                 (A) (A) (A) (A) (A) (A) (A) (A) (A) (A) (A) (A)
                 (A) (A) (A) (A) (A) (A) (A) (A) (A) (A) (A) (A)
                 (A) (A) (A) (A) (A) (A) (A) (A) (A) (A) (A) (A)
                 (A) (A) (A) (A) (A) (A) (A) (A) (A) (A) (A) (A)
                 (A) (A) (A) (A) (A) (A) (A) (A) (A) (A) (A) (A)
                 (A) (A) (A) (A) (A) (A) (A) (A) (A) (A) (A) (A)
                 (A) (A) (A) (A) (A) (A) (A) (A) (A) (A) (A) (A)
                 (A) (A) (A) (A) (A) (A) (A) (A) (A) (A) (A) (A)
                 (A) (A) (A) (A) (A)
 Beta  Orbitals:
       Occupied  (A) (A) (A) (A) (A) (A) (A) (A) (A) (A) (A) (A)
                 (A) (A) (A) (A) (A) (A) (A) (A) (A) (A) (A) (A)
       Virtual   (A) (A) (A) (A) (A) (A) (A) (A) (A) (A) (A) (A)
                 (A) (A) (A) (A) (A) (A) (A) (A) (A) (A) (A) (A)
                 (A) (A) (A) (A) (A) (A) (A) (A) (A) (A) (A) (A)
                 (A) (A) (A) (A) (A) (A) (A) (A) (A) (A) (A) (A)
                 (A) (A) (A) (A) (A) (A) (A) (A) (A) (A) (A) (A)
                 (A) (A) (A) (A) (A) (A) (A) (A) (A) (A) (A) (A)
                 (A) (A) (A) (A) (A) (A) (A) (A) (A) (A) (A) (A)
                 (A) (A) (A) (A) (A) (A) (A) (A) (A) (A) (A) (A)
                 (A) (A) (A) (A) (A) (A) (A) (A) (A) (A) (A) (A)
                 (A) (A) (A) (A) (A) (A) (A) (A) (A) (A) (A) (A)
                 (A) (A) (A) (A) (A) (A) (A) (A) (A) (A) (A) (A)
                 (A) (A) (A) (A) (A) (A) (A) (A) (A) (A) (A) (A)
                 (A) (A) (A) (A) (A) (A) (A) (A) (A) (A) (A) (A)
                 (A) (A) (A) (A) (A) (A) (A) (A) (A) (A) (A) (A)
                 (A) (A) (A) (A) (A) (A) (A) (A) (A) (A) (A) (A)
                 (A) (A) (A) (A) (A) (A) (A) (A) (A) (A) (A) (A)
                 (A) (A) (A) (A) (A) (A) (A) (A) (A) (A) (A) (A)
                 (A) (A) (A) (A) (A) (A) (A) (A) (A) (A) (A) (A)
                 (A) (A) (A) (A) (A) (A) (A) (A) (A) (A) (A) (A)
                 (A) (A) (A) (A) (A) (A) (A) (A) (A) (A) (A) (A)
                 (A) (A) (A) (A) (A) (A) (A) (A) (A) (A) (A) (A)
                 (A) (A) (A) (A) (A) (A) (A) (A) (A) (A) (A) (A)
                 (A) (A) (A) (A) (A) (A) (A) (A) (A) (A) (A) (A)
                 (A) (A) (A) (A) (A) (A)
 The electronic state is 2-A.
 Alpha  occ. eigenvalues --  -19.78749 -19.78419 -10.65848 -10.65129 -10.63100
 Alpha  occ. eigenvalues --  -10.61660  -1.28956  -1.02208  -0.92756  -0.81654
 Alpha  occ. eigenvalues --   -0.77748  -0.65792  -0.60638  -0.56288  -0.55078
 Alpha  occ. eigenvalues --   -0.53373  -0.51425  -0.50186  -0.48898  -0.46359
 Alpha  occ. eigenvalues --   -0.44198  -0.37295  -0.36592  -0.32332  -0.29763
 Alpha virt. eigenvalues --    0.06180   0.07771   0.09973   0.11568   0.13747
 Alpha virt. eigenvalues --    0.14114   0.15233   0.15503   0.17337   0.17953
 Alpha virt. eigenvalues --    0.18798   0.22968   0.26860   0.29327   0.29627
 Alpha virt. eigenvalues --    0.31412   0.31905   0.36572   0.37094   0.39302
 Alpha virt. eigenvalues --    0.41031   0.43744   0.45224   0.46512   0.48427
 Alpha virt. eigenvalues --    0.49633   0.50936   0.51409   0.51722   0.52336
 Alpha virt. eigenvalues --    0.52636   0.53578   0.54658   0.56755   0.57612
 Alpha virt. eigenvalues --    0.60676   0.61234   0.64583   0.68114   0.68885
 Alpha virt. eigenvalues --    0.69655   0.71983   0.72850   0.73822   0.77800
 Alpha virt. eigenvalues --    0.79397   0.81394   0.84882   0.87978   0.88751
 Alpha virt. eigenvalues --    0.91469   0.93625   0.95703   0.97041   0.99624
 Alpha virt. eigenvalues --    0.99979   1.02151   1.06003   1.06657   1.08042
 Alpha virt. eigenvalues --    1.08352   1.09866   1.11565   1.12740   1.14837
 Alpha virt. eigenvalues --    1.16711   1.18979   1.19638   1.20104   1.24146
 Alpha virt. eigenvalues --    1.26986   1.28889   1.30544   1.31833   1.33306
 Alpha virt. eigenvalues --    1.35090   1.37334   1.38785   1.39661   1.40173
 Alpha virt. eigenvalues --    1.40378   1.43090   1.45645   1.47145   1.51060
 Alpha virt. eigenvalues --    1.53452   1.57063   1.57542   1.60391   1.63956
 Alpha virt. eigenvalues --    1.64621   1.71961   1.78251   1.81952   1.83944
 Alpha virt. eigenvalues --    1.94104   2.01061   2.03363   2.05594   2.12652
 Alpha virt. eigenvalues --    2.18088   2.19949   2.23092   2.23341   2.30554
 Alpha virt. eigenvalues --    2.35503   2.38045   2.39350   2.41444   2.41963
 Alpha virt. eigenvalues --    2.44199   2.49519   2.50668   2.54908   2.56949
 Alpha virt. eigenvalues --    2.61894   2.64869   2.68406   2.71625   2.74077
 Alpha virt. eigenvalues --    2.74858   2.81015   2.84101   2.86073   2.86213
 Alpha virt. eigenvalues --    2.87654   2.90987   2.91529   2.92679   2.93825
 Alpha virt. eigenvalues --    2.95628   2.97119   2.98549   3.02845   3.03940
 Alpha virt. eigenvalues --    3.04328   3.05160   3.06555   3.10308   3.11010
 Alpha virt. eigenvalues --    3.11285   3.13317   3.13629   3.15565   3.17034
 Alpha virt. eigenvalues --    3.18910   3.21257   3.21985   3.22888   3.27485
 Alpha virt. eigenvalues --    3.28899   3.32653   3.35581   3.37619   3.38622
 Alpha virt. eigenvalues --    3.40357   3.43016   3.43601   3.44148   3.50618
 Alpha virt. eigenvalues --    3.52580   3.53067   3.53940   3.55098   3.56399
 Alpha virt. eigenvalues --    3.56755   3.58545   3.60425   3.62346   3.66878
 Alpha virt. eigenvalues --    3.68097   3.70610   3.73727   3.74723   3.77802
 Alpha virt. eigenvalues --    3.79954   3.83041   3.86261   3.88150   3.89435
 Alpha virt. eigenvalues --    3.91654   3.92569   3.93836   3.95585   3.97143
 Alpha virt. eigenvalues --    3.99201   4.00334   4.03030   4.05157   4.05773
 Alpha virt. eigenvalues --    4.09772   4.11974   4.12585   4.14980   4.16792
 Alpha virt. eigenvalues --    4.18430   4.20144   4.20632   4.21273   4.22100
 Alpha virt. eigenvalues --    4.25724   4.27047   4.28763   4.35070   4.36716
 Alpha virt. eigenvalues --    4.40187   4.42064   4.42673   4.45737   4.48612
 Alpha virt. eigenvalues --    4.51506   4.56162   4.58750   4.65364   4.70459
 Alpha virt. eigenvalues --    4.79121   4.81210   4.82803   4.85966   4.89343
 Alpha virt. eigenvalues --    4.90068   4.94928   4.96849   4.99487   5.01359
 Alpha virt. eigenvalues --    5.02369   5.04104   5.06702   5.10395   5.13481
 Alpha virt. eigenvalues --    5.16177   5.18512   5.26117   5.29318   5.30385
 Alpha virt. eigenvalues --    5.31476   5.33236   5.34592   5.34817   5.36532
 Alpha virt. eigenvalues --    5.38570   5.39327   5.41461   5.43656   5.44224
 Alpha virt. eigenvalues --    5.49267   5.51787   5.67205   5.70385   5.80915
 Alpha virt. eigenvalues --    5.88856   5.93927   5.97907   5.98398   5.98917
 Alpha virt. eigenvalues --    6.03757   6.09332   6.11716   6.26979   6.32279
 Alpha virt. eigenvalues --    6.33668   6.42774   6.53396   6.69137   6.76869
 Alpha virt. eigenvalues --    6.79836   6.85804   6.98599   7.06894   7.07750
 Alpha virt. eigenvalues --    7.19677   7.43170   7.45774   7.62767   7.78515
 Alpha virt. eigenvalues --    9.79288  10.04905  10.98710  13.47773  13.98600
 Alpha virt. eigenvalues --   14.57178
  Beta  occ. eigenvalues --  -19.78560 -19.76919 -10.65858 -10.63668 -10.63068
  Beta  occ. eigenvalues --  -10.61860  -1.27131  -0.99522  -0.90644  -0.81403
  Beta  occ. eigenvalues --   -0.77290  -0.62062  -0.58393  -0.55235  -0.54735
  Beta  occ. eigenvalues --   -0.51589  -0.50240  -0.49766  -0.46188  -0.45109
  Beta  occ. eigenvalues --   -0.43476  -0.35567  -0.33532  -0.31878
  Beta virt. eigenvalues --   -0.04829   0.07141   0.07973   0.10018   0.11780
  Beta virt. eigenvalues --    0.14098   0.14336   0.15401   0.15737   0.17554
  Beta virt. eigenvalues --    0.18144   0.19258   0.23456   0.27325   0.29571
  Beta virt. eigenvalues --    0.29718   0.31471   0.32001   0.37485   0.37602
  Beta virt. eigenvalues --    0.40312   0.41435   0.44028   0.45328   0.47302
  Beta virt. eigenvalues --    0.49322   0.50380   0.51090   0.51706   0.51756
  Beta virt. eigenvalues --    0.52457   0.52736   0.54079   0.55091   0.57141
  Beta virt. eigenvalues --    0.59534   0.61532   0.62197   0.65099   0.68285
  Beta virt. eigenvalues --    0.69355   0.70402   0.72291   0.73461   0.74508
  Beta virt. eigenvalues --    0.78250   0.79643   0.81987   0.85423   0.88632
  Beta virt. eigenvalues --    0.89085   0.91671   0.93749   0.95996   0.97208
  Beta virt. eigenvalues --    0.99858   1.00113   1.02518   1.06212   1.06824
  Beta virt. eigenvalues --    1.08213   1.08690   1.10114   1.11949   1.12925
  Beta virt. eigenvalues --    1.15025   1.16950   1.19691   1.20003   1.20383
  Beta virt. eigenvalues --    1.24519   1.27483   1.29297   1.30969   1.32239
  Beta virt. eigenvalues --    1.33534   1.35382   1.37659   1.38924   1.39789
  Beta virt. eigenvalues --    1.40353   1.40511   1.43453   1.46038   1.47932
  Beta virt. eigenvalues --    1.51715   1.53988   1.57459   1.57931   1.60640
  Beta virt. eigenvalues --    1.64156   1.65198   1.73007   1.79090   1.82817
  Beta virt. eigenvalues --    1.84397   1.95014   2.02369   2.04200   2.06650
  Beta virt. eigenvalues --    2.13065   2.18071   2.21890   2.23412   2.24059
  Beta virt. eigenvalues --    2.31215   2.35979   2.38347   2.39492   2.42377
  Beta virt. eigenvalues --    2.43155   2.45314   2.50521   2.50854   2.55552
  Beta virt. eigenvalues --    2.57173   2.62345   2.64984   2.68554   2.71891
  Beta virt. eigenvalues --    2.74418   2.75434   2.81773   2.84516   2.86267
  Beta virt. eigenvalues --    2.86958   2.87962   2.91414   2.92018   2.92744
  Beta virt. eigenvalues --    2.94132   2.96222   2.97084   2.98843   3.03104
  Beta virt. eigenvalues --    3.04498   3.04798   3.05468   3.07190   3.10586
  Beta virt. eigenvalues --    3.11345   3.11594   3.13794   3.14150   3.16233
  Beta virt. eigenvalues --    3.17123   3.19194   3.21704   3.22397   3.23480
  Beta virt. eigenvalues --    3.28450   3.29539   3.34418   3.36513   3.38262
  Beta virt. eigenvalues --    3.39207   3.41247   3.43238   3.43693   3.44235
  Beta virt. eigenvalues --    3.50667   3.52993   3.53331   3.54026   3.55087
  Beta virt. eigenvalues --    3.56844   3.57038   3.58907   3.61012   3.62665
  Beta virt. eigenvalues --    3.66986   3.68404   3.71128   3.74079   3.75169
  Beta virt. eigenvalues --    3.78445   3.80505   3.83071   3.86368   3.88411
  Beta virt. eigenvalues --    3.89704   3.91555   3.92822   3.94184   3.95835
  Beta virt. eigenvalues --    3.97523   3.99503   4.00786   4.03502   4.05357
  Beta virt. eigenvalues --    4.06418   4.10085   4.12564   4.12861   4.15019
  Beta virt. eigenvalues --    4.17102   4.18752   4.20442   4.20842   4.21698
  Beta virt. eigenvalues --    4.22667   4.26400   4.27620   4.28988   4.35247
  Beta virt. eigenvalues --    4.37206   4.40600   4.42807   4.43159   4.46656
  Beta virt. eigenvalues --    4.48952   4.51907   4.56900   4.59529   4.65991
  Beta virt. eigenvalues --    4.71209   4.79621   4.81517   4.83166   4.86332
  Beta virt. eigenvalues --    4.89777   4.90603   4.95054   4.97356   4.99650
  Beta virt. eigenvalues --    5.01571   5.02580   5.04409   5.06861   5.10700
  Beta virt. eigenvalues --    5.14195   5.16418   5.19177   5.26353   5.29613
  Beta virt. eigenvalues --    5.31259   5.31753   5.33794   5.34988   5.35279
  Beta virt. eigenvalues --    5.36735   5.38944   5.40068   5.41730   5.43853
  Beta virt. eigenvalues --    5.44661   5.49582   5.52147   5.68633   5.71126
  Beta virt. eigenvalues --    5.81329   5.89422   5.94042   5.98223   5.98516
  Beta virt. eigenvalues --    5.99355   6.04494   6.09865   6.12761   6.27765
  Beta virt. eigenvalues --    6.33807   6.34908   6.43228   6.54918   6.69957
  Beta virt. eigenvalues --    6.79766   6.81371   6.86844   7.00285   7.07435
  Beta virt. eigenvalues --    7.09387   7.21825   7.44342   7.46880   7.64224
  Beta virt. eigenvalues --    7.79321   9.80450  10.05484  10.99712  13.47775
  Beta virt. eigenvalues --   13.98710  14.57412
          Condensed to atoms (all electrons):
               1          2          3          4          5          6
     1  C    5.198067   0.621084  -0.004903   0.005295   0.000312  -0.000587
     2  C    0.621084   4.965419  -0.003488  -0.000218   0.000088   0.000324
     3  C   -0.004903  -0.003488   4.619307   0.396843   0.395583   0.412944
     4  H    0.005295  -0.000218   0.396843   0.669848  -0.036725  -0.055600
     5  H    0.000312   0.000088   0.395583  -0.036725   0.591913  -0.025922
     6  H   -0.000587   0.000324   0.412944  -0.055600  -0.025922   0.602260
     7  O   -0.001042  -0.001000   0.298516  -0.051909  -0.026780  -0.036896
     8  O   -0.081303   0.000882  -0.043539  -0.004573   0.007057   0.005171
     9  H    0.205613  -0.013874   0.004522   0.005098  -0.000967   0.000190
    10  H   -0.050697   0.391867  -0.000068  -0.000128  -0.000005   0.000011
    11  H   -0.054317   0.411109  -0.002591  -0.002741  -0.000298   0.000733
    12  C    0.328832  -0.043654   0.000181  -0.000027  -0.000026  -0.000019
    13  H   -0.041909  -0.001439  -0.000023   0.000044  -0.000002  -0.000001
    14  H   -0.038096  -0.002767  -0.000011   0.000071   0.000001  -0.000002
    15  H   -0.042174   0.000150   0.000164  -0.000227   0.000009   0.000004
               7          8          9         10         11         12
     1  C   -0.001042  -0.081303   0.205613  -0.050697  -0.054317   0.328832
     2  C   -0.001000   0.000882  -0.013874   0.391867   0.411109  -0.043654
     3  C    0.298516  -0.043539   0.004522  -0.000068  -0.002591   0.000181
     4  H   -0.051909  -0.004573   0.005098  -0.000128  -0.002741  -0.000027
     5  H   -0.026780   0.007057  -0.000967  -0.000005  -0.000298  -0.000026
     6  H   -0.036896   0.005171   0.000190   0.000011   0.000733  -0.000019
     7  O    7.952039   0.064401  -0.033098   0.000323   0.015603  -0.000023
     8  O    0.064401   8.041105   0.224417  -0.000382  -0.001063   0.002522
     9  H   -0.033098   0.224417   0.403450   0.002420  -0.003519  -0.011056
    10  H    0.000323  -0.000382   0.002420   0.562466  -0.033218  -0.006414
    11  H    0.015603  -0.001063  -0.003519  -0.033218   0.506725   0.004993
    12  C   -0.000023   0.002522  -0.011056  -0.006414   0.004993   4.769974
    13  H   -0.000004   0.000307  -0.001054  -0.000060  -0.000298   0.413665
    14  H   -0.000023  -0.000222   0.001894   0.005144  -0.000372   0.396468
    15  H   -0.000018   0.000965  -0.000396  -0.000124  -0.000081   0.409517
              13         14         15
     1  C   -0.041909  -0.038096  -0.042174
     2  C   -0.001439  -0.002767   0.000150
     3  C   -0.000023  -0.000011   0.000164
     4  H    0.000044   0.000071  -0.000227
     5  H   -0.000002   0.000001   0.000009
     6  H   -0.000001  -0.000002   0.000004
     7  O   -0.000004  -0.000023  -0.000018
     8  O    0.000307  -0.000222   0.000965
     9  H   -0.001054   0.001894  -0.000396
    10  H   -0.000060   0.005144  -0.000124
    11  H   -0.000298  -0.000372  -0.000081
    12  C    0.413665   0.396468   0.409517
    13  H    0.576594  -0.026938  -0.035500
    14  H   -0.026938   0.589857  -0.027237
    15  H   -0.035500  -0.027237   0.583602
          Atomic-Atomic Spin Densities.
               1          2          3          4          5          6
     1  C    0.776941  -0.012801   0.000612  -0.005154   0.000142   0.001277
     2  C   -0.012801  -0.144186  -0.000118   0.000769  -0.000052  -0.000172
     3  C    0.000612  -0.000118  -0.006107   0.004595   0.000438  -0.002377
     4  H   -0.005154   0.000769   0.004595   0.001326  -0.000776  -0.001029
     5  H    0.000142  -0.000052   0.000438  -0.000776  -0.001410   0.000971
     6  H    0.001277  -0.000172  -0.002377  -0.001029   0.000971   0.003700
     7  O    0.013714  -0.002575  -0.000086  -0.000998   0.000151  -0.000590
     8  O   -0.086992   0.006601  -0.001627   0.004032  -0.000217  -0.000438
     9  H    0.056709  -0.002913   0.000793  -0.003703   0.000114   0.001406
    10  H   -0.012378  -0.004401   0.000076  -0.000440   0.000014   0.000027
    11  H   -0.006524   0.013008  -0.000378   0.001490  -0.000112  -0.000211
    12  C   -0.031054   0.006278   0.000009   0.000478  -0.000003  -0.000073
    13  H   -0.004341   0.000337   0.000002   0.000008   0.000000  -0.000001
    14  H   -0.006878  -0.001716   0.000008  -0.000099   0.000001   0.000007
    15  H   -0.004718   0.000277  -0.000007   0.000050  -0.000001  -0.000011
               7          8          9         10         11         12
     1  C    0.013714  -0.086992   0.056709  -0.012378  -0.006524  -0.031054
     2  C   -0.002575   0.006601  -0.002913  -0.004401   0.013008   0.006278
     3  C   -0.000086  -0.001627   0.000793   0.000076  -0.000378   0.000009
     4  H   -0.000998   0.004032  -0.003703  -0.000440   0.001490   0.000478
     5  H    0.000151  -0.000217   0.000114   0.000014  -0.000112  -0.000003
     6  H   -0.000590  -0.000438   0.001406   0.000027  -0.000211  -0.000073
     7  O    0.064760  -0.043704   0.010494   0.000493  -0.004530  -0.000520
     8  O   -0.043704   0.537383  -0.042348  -0.000888   0.002850   0.006015
     9  H    0.010494  -0.042348  -0.094384   0.001202  -0.000564  -0.005632
    10  H    0.000493  -0.000888   0.001202   0.086156  -0.009603  -0.004692
    11  H   -0.004530   0.002850  -0.000564  -0.009603   0.024694   0.001203
    12  C   -0.000520   0.006015  -0.005632  -0.004692   0.001203   0.020847
    13  H   -0.000012   0.000257  -0.000348  -0.000176   0.000031   0.005154
    14  H    0.000048  -0.000470   0.000715   0.005694  -0.000413  -0.006770
    15  H   -0.000019   0.000284  -0.000207  -0.000200   0.000036   0.005559
              13         14         15
     1  C   -0.004341  -0.006878  -0.004718
     2  C    0.000337  -0.001716   0.000277
     3  C    0.000002   0.000008  -0.000007
     4  H    0.000008  -0.000099   0.000050
     5  H    0.000000   0.000001  -0.000001
     6  H   -0.000001   0.000007  -0.000011
     7  O   -0.000012   0.000048  -0.000019
     8  O    0.000257  -0.000470   0.000284
     9  H   -0.000348   0.000715  -0.000207
    10  H   -0.000176   0.005694  -0.000200
    11  H    0.000031  -0.000413   0.000036
    12  C    0.005154  -0.006770   0.005559
    13  H    0.004776  -0.001799  -0.000673
    14  H   -0.001799   0.054982  -0.002168
    15  H   -0.000673  -0.002168   0.005057
 Mulliken charges and spin densities:
               1          2
     1  C   -0.044174   0.678557
     2  C   -0.324485  -0.141664
     3  C   -0.073435  -0.004164
     4  H    0.074950   0.000549
     5  H    0.095762  -0.000741
     6  H    0.097389   0.002486
     7  O   -0.180090   0.036626
     8  O   -0.215744   0.380738
     9  H    0.216359  -0.078666
    10  H    0.128865   0.060886
    11  H    0.159337   0.020976
    12  C   -0.264933  -0.003201
    13  H    0.116620   0.003214
    14  H    0.102234   0.041143
    15  H    0.111344   0.003260
 Sum of Mulliken charges =  -0.00000   1.00000
 Mulliken charges and spin densities with hydrogens summed into heavy atoms:
               1          2
     1  C   -0.044174   0.678557
     2  C   -0.036282  -0.059802
     3  C    0.194667  -0.001870
     7  O   -0.180090   0.036626
     8  O    0.000615   0.302073
    12  C    0.065264   0.044416
 APT charges:
               1
     1  C    0.468633
     2  C   -0.295383
     3  C    0.426965
     4  H   -0.032755
     5  H   -0.005121
     6  H   -0.030729
     7  O   -0.424153
     8  O    0.157887
     9  H   -0.341901
    10  H    0.040808
    11  H    0.085180
    12  C   -0.037119
    13  H    0.014328
    14  H   -0.039006
    15  H    0.012365
 Sum of APT charges =  -0.00000
 APT charges with hydrogens summed into heavy atoms:
               1
     1  C    0.468633
     2  C   -0.169395
     3  C    0.358361
     7  O   -0.424153
     8  O   -0.184014
    12  C   -0.049433
 Electronic spatial extent (au):  <R**2>=            825.6093
 Charge=              0.0000 electrons
 Dipole moment (field-independent basis, Debye):
    X=              1.4718    Y=              1.0093    Z=              2.0113  Tot=              2.6889
 Quadrupole moment (field-independent basis, Debye-Ang):
   XX=            -32.9354   YY=            -37.4226   ZZ=            -39.7097
   XY=             -2.3280   XZ=             -2.6062   YZ=             -0.8619
 Traceless Quadrupole moment (field-independent basis, Debye-Ang):
   XX=              3.7539   YY=             -0.7334   ZZ=             -3.0205
   XY=             -2.3280   XZ=             -2.6062   YZ=             -0.8619
 Octapole moment (field-independent basis, Debye-Ang**2):
  XXX=             -9.1030  YYY=              0.3871  ZZZ=             -0.8005  XYY=             -0.5375
  XXY=              0.6063  XXZ=              7.3836  XZZ=             -4.4630  YZZ=             -2.8930
  YYZ=             -1.0865  XYZ=              0.8757
 Hexadecapole moment (field-independent basis, Debye-Ang**3):
 XXXX=           -723.0836 YYYY=           -207.1863 ZZZZ=           -116.1417 XXXY=             -1.9652
 XXXZ=             -4.6762 YYYX=              1.5651 YYYZ=             -0.6760 ZZZX=              5.2371
 ZZZY=              1.2177 XXYY=           -150.9136 XXZZ=           -149.3483 YYZZ=            -55.5724
 XXYZ=              3.1121 YYXZ=             -0.3587 ZZXY=             -3.0875
 N-N= 2.375802398608D+02 E-N=-1.195407313108D+03  KE= 3.063068578892D+02
  Exact polarizability:  97.728   3.145  68.439   1.085  -1.811  46.993
 Approx polarizability:  81.588  -0.982  80.640   3.750  -1.359  55.228
                          Isotropic Fermi Contact Couplings
        Atom                 a.u.       MegaHertz       Gauss      10(-4) cm-1
     1  C(13)              0.15631     175.72319      62.70241      58.61495
     2  C(13)              0.01423      16.00052       5.70938       5.33720
     3  C(13)             -0.00395      -4.43610      -1.58291      -1.47972
     4  H(1)               0.00265      11.82771       4.22042       3.94530
     5  H(1)              -0.00008      -0.36908      -0.13170      -0.12311
     6  H(1)               0.00081       3.61610       1.29031       1.20620
     7  O(17)              0.01699     -10.30122      -3.67573      -3.43612
     8  O(17)              0.03416     -20.70724      -7.38886      -6.90719
     9  H(1)              -0.02473    -110.54456     -39.44505     -36.87370
    10  H(1)               0.02409     107.69078      38.42675      35.92178
    11  H(1)               0.01240      55.40955      19.77150      18.48264
    12  C(13)              0.01690      19.00235       6.78051       6.33850
    13  H(1)               0.00131       5.86180       2.09164       1.95529
    14  H(1)               0.01672      74.73119      26.66595      24.92764
    15  H(1)               0.00140       6.25714       2.23270       2.08716
 --------------------------------------------------------
       Center         ----  Spin Dipole Couplings  ----
                      3XX-RR        3YY-RR        3ZZ-RR
 --------------------------------------------------------
     1   Atom        0.315034     -0.013337     -0.301697
     2   Atom       -0.011166      0.057193     -0.046027
     3   Atom        0.002695     -0.005047      0.002352
     4   Atom       -0.000035     -0.003444      0.003479
     5   Atom        0.002038     -0.000659     -0.001378
     6   Atom        0.002615     -0.004491      0.001875
     7   Atom        0.301012     -0.118209     -0.182803
     8   Atom        0.767865     -0.017761     -0.750105
     9   Atom        0.162795     -0.051616     -0.111178
    10   Atom       -0.000490      0.006913     -0.006424
    11   Atom       -0.001524      0.010281     -0.008757
    12   Atom        0.045369     -0.023716     -0.021654
    13   Atom        0.006091      0.001931     -0.008022
    14   Atom        0.007461     -0.000366     -0.007095
    15   Atom       -0.001671     -0.001130      0.002801
 --------------------------------------------------------
                        XY            XZ            YZ
 --------------------------------------------------------
     1   Atom        0.483286      0.143880      0.112711
     2   Atom        0.005079      0.012536     -0.009446
     3   Atom       -0.004164     -0.004357      0.004313
     4   Atom       -0.001737     -0.004587      0.005431
     5   Atom       -0.003352     -0.003269      0.002708
     6   Atom       -0.000487     -0.006443      0.000346
     7   Atom        0.279981      0.105685      0.069658
     8   Atom        1.156839      0.392765      0.276537
     9   Atom        0.138979      0.057578      0.029652
    10   Atom        0.004915      0.001099     -0.000224
    11   Atom       -0.007935      0.003196     -0.005261
    12   Atom       -0.025492      0.027456     -0.009047
    13   Atom       -0.010611     -0.002737      0.003868
    14   Atom        0.001628      0.004925     -0.000403
    15   Atom       -0.004825      0.008010     -0.009604
 --------------------------------------------------------


 ---------------------------------------------------------------------------------
              Anisotropic Spin Dipole Couplings in Principal Axis System
 ---------------------------------------------------------------------------------

       Atom             a.u.   MegaHertz   Gauss  10(-4) cm-1        Axes

              Baa    -0.3618   -48.550   -17.324   -16.194 -0.5198  0.8093 -0.2735
     1 C(13)  Bbb    -0.3329   -44.676   -15.942   -14.902 -0.3029  0.1248  0.9448
              Bcc     0.6947    93.226    33.265    31.097  0.7988  0.5739  0.1803
 
              Baa    -0.0511    -6.857    -2.447    -2.287 -0.3093  0.0970  0.9460
     2 C(13)  Bbb    -0.0072    -0.964    -0.344    -0.321  0.9492 -0.0289  0.3134
              Bcc     0.0583     7.820     2.790     2.609  0.0578  0.9949 -0.0832
 
              Baa    -0.0075    -1.012    -0.361    -0.338  0.2513  0.9229 -0.2916
     3 C(13)  Bbb    -0.0018    -0.246    -0.088    -0.082  0.7077  0.0303  0.7059
              Bcc     0.0094     1.258     0.449     0.420  0.6603 -0.3838 -0.6455
 
              Baa    -0.0065    -3.480    -1.242    -1.161 -0.1445  0.8403 -0.5226
     4 H(1)   Bbb    -0.0025    -1.354    -0.483    -0.452  0.8696  0.3598  0.3382
              Bcc     0.0091     4.834     1.725     1.613 -0.4722  0.4056  0.7827
 
              Baa    -0.0038    -2.019    -0.721    -0.674  0.1337 -0.5632  0.8154
     5 H(1)   Bbb    -0.0028    -1.479    -0.528    -0.493  0.6816  0.6495  0.3369
              Bcc     0.0066     3.498     1.248     1.167  0.7194 -0.5108 -0.4707
 
              Baa    -0.0045    -2.421    -0.864    -0.808  0.1985  0.9690  0.1471
     6 H(1)   Bbb    -0.0042    -2.234    -0.797    -0.745  0.6578 -0.2430  0.7129
              Bcc     0.0087     4.655     1.661     1.553  0.7266 -0.0448 -0.6857
 
              Baa    -0.2623    18.979     6.772     6.331 -0.3919  0.8843 -0.2539
     7 O(17)  Bbb    -0.2032    14.706     5.248     4.906 -0.2808  0.1478  0.9483
              Bcc     0.4655   -33.685   -12.020   -11.236  0.8761  0.4429  0.1904
 
              Baa    -0.8497    61.481    21.938    20.508 -0.5569  0.5752  0.5992
     8 O(17)  Bbb    -0.8416    60.898    21.730    20.313  0.2312 -0.5855  0.7770
              Bcc     1.6913  -122.379   -43.668   -40.821  0.7978  0.5712  0.1930
 
              Baa    -0.1234   -65.853   -23.498   -21.966 -0.0102 -0.3647  0.9311
     9 H(1)   Bbb    -0.1195   -63.774   -22.756   -21.273 -0.4701  0.8236  0.3174
              Bcc     0.2430   129.628    46.254    43.239  0.8825  0.4345  0.1799
 
              Baa    -0.0067    -3.595    -1.283    -1.199 -0.2532  0.1070  0.9615
    10 H(1)   Bbb    -0.0026    -1.404    -0.501    -0.468  0.8576 -0.4351  0.2742
              Bcc     0.0094     5.000     1.784     1.668  0.4477  0.8940  0.0184
 
              Baa    -0.0103    -5.515    -1.968    -1.840 -0.1963  0.1708  0.9655
    11 H(1)   Bbb    -0.0055    -2.915    -1.040    -0.972  0.8760  0.4730  0.0944
              Bcc     0.0158     8.431     3.008     2.812 -0.4406  0.8643 -0.2425
 
              Baa    -0.0321    -4.308    -1.537    -1.437  0.3070  0.9516  0.0172
    12 C(13)  Bbb    -0.0315    -4.222    -1.506    -1.408 -0.3108  0.0831  0.9468
              Bcc     0.0636     8.530     3.044     2.845  0.8995 -0.2960  0.3212
 
              Baa    -0.0095    -5.051    -1.802    -1.685 -0.1359 -0.4295  0.8928
    13 H(1)   Bbb    -0.0062    -3.330    -1.188    -1.111  0.6457  0.6451  0.4086
              Bcc     0.0157     8.381     2.991     2.796  0.7514 -0.6320 -0.1897
 
              Baa    -0.0087    -4.640    -1.656    -1.548 -0.2996  0.1045  0.9483
    14 H(1)   Bbb    -0.0005    -0.263    -0.094    -0.088 -0.1122  0.9832 -0.1437
              Bcc     0.0092     4.902     1.749     1.635  0.9474  0.1495  0.2828
 
              Baa    -0.0095    -5.050    -1.802    -1.685 -0.3469  0.6151  0.7081
    15 H(1)   Bbb    -0.0062    -3.282    -1.171    -1.095  0.8097  0.5774 -0.1049
              Bcc     0.0156     8.332     2.973     2.779  0.4734 -0.5369  0.6983
 

 ---------------------------------------------------------------------------------

 Calling FoFJK, ICntrl=  10100127 FMM=F ISym2X=0 I1Cent= 0 IOpClX= 1 NMat=1 NMatS=1 NMatT=0.
 ***** Axes restored to original set *****
 -------------------------------------------------------------------
 Center     Atomic                   Forces (Hartrees/Bohr)
 Number     Number              X              Y              Z
 -------------------------------------------------------------------
      1        6          -0.001322569    0.006425605    0.000122493
      2        6          -0.000281527   -0.005331600    0.000893835
      3        6          -0.001164819   -0.000147025   -0.005408479
      4        1          -0.001254935    0.000147411    0.000051062
      5        1           0.000318585    0.000345353    0.000228679
      6        1           0.000125453   -0.000691375   -0.000216638
      7        8          -0.008236924   -0.009939821    0.005048010
      8        8           0.004504245    0.011953771    0.000851047
      9        1           0.006254483   -0.002904196   -0.001199408
     10        1          -0.000754897    0.000126860    0.000210343
     11        1           0.001334226    0.000268975   -0.000397395
     12        6          -0.000208082   -0.000587752    0.000077345
     13        1           0.000124408   -0.000113534   -0.000387282
     14        1           0.000214783    0.000489664   -0.000123883
     15        1           0.000347570   -0.000042337    0.000250270
 -------------------------------------------------------------------
 Cartesian Forces:  Max     0.011953771 RMS     0.003380092
 FormGI is forming the generalized inverse of G from B-inverse, IUseBI=4.

 GradGradGradGradGradGradGradGradGradGradGradGradGradGradGradGradGradGrad
 Berny optimization.
 Internal  Forces:  Max     0.014394687 RMS     0.002603656
 Search for a saddle point.
 Step number   1 out of a maximum of  100
 All quantities printed in internal units (Hartrees-Bohrs-Radians)
 Swapping is turned off.
 Second derivative matrix not updated -- analytic derivatives used.
 ITU=  0
     Eigenvalues ---   -0.06729   0.00172   0.00474   0.00706   0.00894
     Eigenvalues ---    0.01650   0.02158   0.03904   0.04669   0.05541
     Eigenvalues ---    0.05614   0.05663   0.06723   0.08471   0.08580
     Eigenvalues ---    0.09541   0.10127   0.11636   0.12301   0.13384
     Eigenvalues ---    0.14601   0.15496   0.16803   0.18529   0.19823
     Eigenvalues ---    0.22663   0.29364   0.31907   0.32856   0.33238
     Eigenvalues ---    0.33556   0.33699   0.34292   0.34539   0.35007
     Eigenvalues ---    0.35460   0.36331   0.43960   0.66249
 Eigenvectors required to have negative eigenvalues:
                          R2        R11       A2        R10       A1
   1                    0.74435  -0.61245   0.14829   0.14740  -0.09111
                          A14       A3        D16       A21       A13
   1                   -0.05854  -0.05718  -0.04398   0.03994  -0.03705
 RFO step:  Lambda0=1.383166491D-04 Lambda=-1.04842618D-03.
 Linear search not attempted -- option 19 set.
 Iteration  1 RMS(Cart)=  0.04977358 RMS(Int)=  0.00046791
 Iteration  2 RMS(Cart)=  0.00097849 RMS(Int)=  0.00000741
 Iteration  3 RMS(Cart)=  0.00000084 RMS(Int)=  0.00000741
 Variable       Old X    -DE/DX   Delta X   Delta X   Delta X     New X
                                 (Linear)    (Quad)   (Total)
    R1        2.47473   0.00487   0.00000   0.00578   0.00578   2.48051
    R2        2.62913  -0.00124   0.00000   0.02858   0.02858   2.65771
    R3        2.79557   0.00029   0.00000  -0.00248  -0.00248   2.79309
    R4        2.05711  -0.00066   0.00000  -0.00204  -0.00204   2.05506
    R5        2.04937  -0.00140   0.00000  -0.00397  -0.00397   2.04539
    R6        2.06487  -0.00105   0.00000  -0.00325  -0.00325   2.06162
    R7        2.05700  -0.00046   0.00000  -0.00059  -0.00059   2.05641
    R8        2.05919  -0.00055   0.00000  -0.00205  -0.00205   2.05714
    R9        2.67211   0.00568   0.00000   0.01260   0.01260   2.68472
   R10        2.61635   0.01439   0.00000   0.05110   0.05110   2.66745
   R11        2.13881   0.00591   0.00000  -0.01680  -0.01680   2.12201
   R12        2.05995  -0.00031   0.00000  -0.00080  -0.00080   2.05915
   R13        2.06611  -0.00010   0.00000  -0.00002  -0.00002   2.06609
   R14        2.06000  -0.00031   0.00000  -0.00087  -0.00087   2.05913
    A1        1.93273   0.00123   0.00000  -0.00229  -0.00229   1.93045
    A2        2.35190  -0.00104   0.00000   0.00896   0.00896   2.36086
    A3        1.99855  -0.00019   0.00000  -0.00667  -0.00667   1.99187
    A4        2.11378   0.00046   0.00000   0.00158   0.00158   2.11535
    A5        2.11674  -0.00001   0.00000  -0.00028  -0.00028   2.11646
    A6        2.05262  -0.00045   0.00000  -0.00128  -0.00128   2.05134
    A7        1.92101  -0.00028   0.00000  -0.00124  -0.00123   1.91978
    A8        1.92082  -0.00048   0.00000  -0.00008  -0.00011   1.92071
    A9        1.92452   0.00111   0.00000   0.00760   0.00759   1.93210
   A10        1.92567  -0.00023   0.00000  -0.00179  -0.00179   1.92388
   A11        1.84512  -0.00076   0.00000  -0.00886  -0.00886   1.83626
   A12        1.92553   0.00065   0.00000   0.00414   0.00413   1.92966
   A13        1.88551   0.00108   0.00000  -0.00916  -0.00916   1.87636
   A14        1.80558   0.00512   0.00000  -0.00201  -0.00201   1.80357
   A15        1.93575   0.00021   0.00000   0.00217   0.00217   1.93792
   A16        1.92089   0.00067   0.00000   0.00242   0.00241   1.92331
   A17        1.93725   0.00024   0.00000   0.00203   0.00203   1.93928
   A18        1.89442  -0.00042   0.00000  -0.00268  -0.00269   1.89174
   A19        1.87871  -0.00031   0.00000  -0.00162  -0.00162   1.87709
   A20        1.89549  -0.00043   0.00000  -0.00261  -0.00261   1.89288
   A21        3.02268   0.00276   0.00000   0.02844   0.02844   3.05112
   A22        3.03871   0.00191   0.00000   0.03472   0.03472   3.07343
    D1       -3.13889  -0.00003   0.00000  -0.00360  -0.00360   3.14069
    D2       -0.00811  -0.00007   0.00000  -0.00169  -0.00170  -0.00981
    D3        0.00307   0.00001   0.00000  -0.00075  -0.00074   0.00233
    D4        3.13385  -0.00003   0.00000   0.00116   0.00117   3.13501
    D5       -0.26855  -0.00065   0.00000   0.00774   0.00773  -0.26082
    D6        2.85075  -0.00005   0.00000   0.00928   0.00929   2.86004
    D7       -2.08431  -0.00007   0.00000  -0.00150  -0.00150  -2.08582
    D8        0.01230  -0.00002   0.00000  -0.00188  -0.00188   0.01043
    D9        2.11122   0.00002   0.00000  -0.00224  -0.00224   2.10898
   D10        1.05766  -0.00003   0.00000   0.00143   0.00143   1.05909
   D11       -3.12891   0.00002   0.00000   0.00106   0.00106  -3.12785
   D12       -1.02999   0.00007   0.00000   0.00069   0.00069  -1.02930
   D13        1.12755   0.00028   0.00000   0.00743   0.00745   1.13500
   D14       -3.07978   0.00009   0.00000   0.00483   0.00482  -3.07496
   D15       -0.99784  -0.00028   0.00000  -0.00027  -0.00029  -0.99814
   D16       -1.55831  -0.00165   0.00000  -0.03714  -0.03714  -1.59545
         Item               Value     Threshold  Converged?
 Maximum Force            0.014395     0.000450     NO 
 RMS     Force            0.002604     0.000300     NO 
 Maximum Displacement     0.146635     0.001800     NO 
 RMS     Displacement     0.050193     0.001200     NO 
 Predicted change in Energy=-4.580347D-04
 GradGradGradGradGradGradGradGradGradGradGradGradGradGradGradGradGradGrad

                          Input orientation:                          
 ---------------------------------------------------------------------
 Center     Atomic      Atomic             Coordinates (Angstroms)
 Number     Number       Type             X           Y           Z
 ---------------------------------------------------------------------
      1          6           0        1.346365   -0.152643    0.080607
      2          6           0        1.147714   -1.430206    0.307253
      3          6           0       -2.185212   -0.218990   -0.806910
      4          1           0       -1.367784   -0.512496   -1.467108
      5          1           0       -2.916545   -1.022065   -0.740498
      6          1           0       -2.656472    0.689585   -1.177639
      7          8           0       -1.715825   -0.031580    0.520838
      8          8           0       -0.825536    1.063704    0.505861
      9          1           0        0.174004    0.582681    0.331260
     10          1           0        1.943553   -2.157799    0.166224
     11          1           0        0.188704   -1.797600    0.649097
     12          6           0        2.489920    0.668511   -0.369492
     13          1           0        2.761134    1.407689    0.383770
     14          1           0        3.359584    0.033367   -0.558273
     15          1           0        2.250129    1.206408   -1.286278
 ---------------------------------------------------------------------
                    Distance matrix (angstroms):
                    1          2          3          4          5
     1  C    0.000000
     2  C    1.312630   0.000000
     3  C    3.641994   3.717095   0.000000
     4  H    3.145079   3.212208   1.090961   0.000000
     5  H    4.427471   4.216937   1.088204   1.785016   0.000000
     6  H    4.279630   4.601114   1.088593   1.785919   1.785630
     7  O    3.096040   3.193999   1.420690   2.074691   2.003437
     8  O    2.525370   3.186338   2.284160   2.582837   3.205645
     9  H    1.406399   2.236158   2.739344   2.609722   3.643537
    10  H    2.093948   1.087493   4.663975   4.042246   5.072730
    11  H    2.090274   1.082376   3.201162   2.924461   3.489269
    12  C    1.478040   2.581494   4.778687   4.181079   5.676756
    13  H    2.127937   3.265368   5.341361   4.915367   6.277238
    14  H    2.120335   2.789901   5.556101   4.844787   6.366862
    15  H    2.128893   3.272062   4.683354   4.009567   5.653184
                    6          7          8          9         10
     6  H    0.000000
     7  O    2.071164   0.000000
     8  O    2.515246   1.411554   0.000000
     9  H    3.209330   1.996173   1.122920   0.000000
    10  H    5.574387   4.247070   4.261607   3.266309   0.000000
    11  H    4.197389   2.600482   3.039121   2.401453   1.855372
    12  C    5.209501   4.355583   3.451764   2.421134   2.928061
    13  H    5.683672   4.704619   3.605196   2.715997   3.664488
    14  H    6.083351   5.189265   4.439505   3.352750   2.707628
    15  H    4.934941   4.530681   3.562562   2.704766   3.677179
                   11         12         13         14         15
    11  H    0.000000
    12  C    3.523468   0.000000
    13  H    4.118455   1.089654   0.000000
    14  H    3.855472   1.093326   1.770410   0.000000
    15  H    4.125435   1.089647   1.758039   1.771131   0.000000
 Stoichiometry    C4H9O2(2)
 Framework group  C1[X(C4H9O2)]
 Deg. of freedom    39
 Full point group                 C1      NOp   1
 Largest Abelian subgroup         C1      NOp   1
 Largest concise Abelian subgroup C1      NOp   1
                         Standard orientation:                         
 ---------------------------------------------------------------------
 Center     Atomic      Atomic             Coordinates (Angstroms)
 Number     Number       Type             X           Y           Z
 ---------------------------------------------------------------------
      1          6           0        1.343939    0.144676   -0.067473
      2          6           0        1.154844    1.429356   -0.259404
      3          6           0       -2.195916    0.206748    0.786747
      4          1           0       -1.383485    0.476386    1.463097
      5          1           0       -2.921964    1.015748    0.736149
      6          1           0       -2.676030   -0.709213    1.126658
      7          8           0       -1.714326    0.054539   -0.541132
      8          8           0       -0.830481   -1.046026   -0.548742
      9          1           0        0.169982   -0.576169   -0.350606
     10          1           0        1.953359    2.147855   -0.089775
     11          1           0        0.201413    1.812089   -0.600023
     12          6           0        2.478236   -0.695820    0.370181
     13          1           0        2.752770   -1.414787   -0.401222
     14          1           0        3.349566   -0.071536    0.585622
     15          1           0        2.226215   -1.258242    1.268789
 ---------------------------------------------------------------------
 Rotational constants (GHZ):           5.7392512           1.6921711           1.5079205
 Standard basis: CC-pVTZ (5D, 7F)
 There are   345 symmetry adapted cartesian basis functions of A   symmetry.
 There are   306 symmetry adapted basis functions of A   symmetry.
   306 basis functions,   465 primitive gaussians,   345 cartesian basis functions
    25 alpha electrons       24 beta electrons
       nuclear repulsion energy       235.6864784634 Hartrees.
 NAtoms=   15 NActive=   15 NUniq=   15 SFac= 1.00D+00 NAtFMM=   60 NAOKFM=F Big=F
 Integral buffers will be    131072 words long.
 Raffenetti 2 integral format.
 Two-electron integral symmetry is turned on.
 Nuclear repulsion after empirical dispersion term =      235.6792580311 Hartrees.
 One-electron integrals computed using PRISM.
 NBasis=   306 RedAO= T EigKep=  4.19D-04  NBF=   306
 NBsUse=   306 1.00D-06 EigRej= -1.00D+00 NBFU=   306
 Initial guess from the checkpoint file:  "/localscratch/341085/Gau-41585.chk"
 B after Tr=     0.000000   -0.000000    0.000000
         Rot=    0.999908   -0.012759    0.003891    0.002314 Ang=  -1.55 deg.
 Initial guess <Sx>= 0.0000 <Sy>= 0.0000 <Sz>= 0.5000 <S**2>= 0.7771 S= 0.5135
 ExpMin= 1.03D-01 ExpMax= 1.53D+04 ExpMxC= 5.22D+02 IAcc=3 IRadAn=         5 AccDes= 0.00D+00
 Harris functional with IExCor=  419 and IRadAn=       5 diagonalized for initial guess.
 HarFok:  IExCor=  419 AccDes= 0.00D+00 IRadAn=         5 IDoV= 1 UseB2=F ITyADJ=14
 ICtDFT=  3500011 ScaDFX=  1.000000  1.000000  1.000000  1.000000
 FoFCou: FMM=F IPFlag=           0 FMFlag=      100000 FMFlg1=           0
         NFxFlg=           0 DoJE=T BraDBF=F KetDBF=T FulRan=T
         wScrn=  0.000000 ICntrl=       500 IOpCl=  0 I1Cent=   200000004 NGrid=           0
         NMat0=    1 NMatS0=      1 NMatT0=    0 NMatD0=    1 NMtDS0=    0 NMtDT0=    0
 Petite list used in FoFCou.
 Requested convergence on RMS density matrix=1.00D-08 within 128 cycles.
 Requested convergence on MAX density matrix=1.00D-06.
 Requested convergence on             energy=1.00D-06.
 No special actions if energy rises.
 Integral accuracy reduced to 1.0D-05 until final iterations.
 Initial convergence to 1.0D-05 achieved.  Increase integral accuracy.
 SCF Done:  E(UB2PLYPD3) =  -307.569208436     A.U. after   17 cycles
            NFock= 17  Conv=0.46D-08     -V/T= 2.0043
 <Sx>= 0.0000 <Sy>= 0.0000 <Sz>= 0.5000 <S**2>= 0.7777 S= 0.5138
 <L.S>=  0.00000000000    
 Annihilation of the first spin contaminant:
 S**2 before annihilation     0.7777,   after     0.7505
 DoSCS=T DFT=T ScalE2(SS,OS)=  0.270000  0.270000
 ExpMin= 1.03D-01 ExpMax= 1.53D+04 ExpMxC= 5.22D+02 IAcc=3 IRadAn=         5 AccDes= 0.00D+00
 HarFok:  IExCor=  205 AccDes= 0.00D+00 IRadAn=         5 IDoV=-2 UseB2=F ITyADJ=14
 ICtDFT= 12500011 ScaDFX=  1.000000  1.000000  1.000000  1.000000
 Range of M.O.s used for correlation:     7   306
 NBasis=   306 NAE=    25 NBE=    24 NFC=     6 NFV=     0
 NROrb=    300 NOA=    19 NOB=    18 NVA=   281 NVB=   282

 **** Warning!!: The largest alpha MO coefficient is  0.12024572D+02


 **** Warning!!: The largest beta MO coefficient is  0.12024524D+02

 DoSCS=T DFT=T ScalE2(SS,OS)=  0.270000  0.270000
 Disk-based method using ON**2 memory for 19 occupieds at a time.
 Estimated scratch disk usage=  1372080744 words.
 Actual    scratch disk usage=  1257332328 words.
 JobTyp=2 Pass  1:  I=   7 to  25 NPSUse= 40 ParTrn=T ParDer=T DoDerP=T.
 (rs|ai) integrals will be sorted in core.
 Actual    scratch disk usage=  1257332328 words.
 JobTyp=3 Pass  1:  I=   7 to  24 NPSUse= 40 ParTrn=T ParDer=T DoDerP=T.
 (rs|ai) integrals will be sorted in core.
 Spin components of T(2) and E(2):
     alpha-alpha T2 =       0.6497848417D-01 E2=     -0.4677576313D-01
     alpha-beta  T2 =       0.4010765141D+00 E2=     -0.2905001465D+00
     beta-beta   T2 =       0.7066171143D-01 E2=     -0.4582344438D-01
 (S**2,0)=  0.77771D+00           (S**2,1)=  0.74908D+00
 Scaling Projection term by:   0.270000
 E(PUHF)=      -0.30757558261D+03        E(PMP2)=      -0.30795314997D+03
 E2(B2PLYPD3) =    -0.3830993540D+00 E(B2PLYPD3) =    -0.30795230778958D+03
          IDoAtm=111111111111111
          Differentiating once with respect to electric field.
                with respect to dipole field.
          Differentiating once with respect to nuclear coordinates.
 Keep R1 and R2 ints in memory in canonical form, NReq=2252584249.
          There are     1 degrees of freedom in the 1st order CPHF.  IDoFFX=0 NUNeed=     1.
 LinEq1:  Iter=  0 NonCon=     1 RMS=9.85D-04 Max=6.86D-02 NDo=     1
 AX will form     1 AO Fock derivatives at one time.
 LinEq1:  Iter=  1 NonCon=     1 RMS=3.52D-04 Max=1.58D-02 NDo=     1
 LinEq1:  Iter=  2 NonCon=     1 RMS=2.26D-04 Max=1.36D-02 NDo=     1
 LinEq1:  Iter=  3 NonCon=     1 RMS=1.29D-04 Max=8.92D-03 NDo=     1
 LinEq1:  Iter=  4 NonCon=     1 RMS=8.16D-05 Max=4.86D-03 NDo=     1
 LinEq1:  Iter=  5 NonCon=     1 RMS=3.32D-05 Max=8.78D-04 NDo=     1
 LinEq1:  Iter=  6 NonCon=     1 RMS=2.47D-05 Max=9.31D-04 NDo=     1
 LinEq1:  Iter=  7 NonCon=     1 RMS=1.02D-05 Max=3.20D-04 NDo=     1
 LinEq1:  Iter=  8 NonCon=     1 RMS=6.67D-06 Max=1.71D-04 NDo=     1
 LinEq1:  Iter=  9 NonCon=     1 RMS=2.71D-06 Max=7.46D-05 NDo=     1
 LinEq1:  Iter= 10 NonCon=     1 RMS=1.05D-06 Max=2.18D-05 NDo=     1
 LinEq1:  Iter= 11 NonCon=     1 RMS=4.27D-07 Max=5.90D-06 NDo=     1
 LinEq1:  Iter= 12 NonCon=     1 RMS=1.79D-07 Max=3.20D-06 NDo=     1
 LinEq1:  Iter= 13 NonCon=     1 RMS=8.75D-08 Max=1.93D-06 NDo=     1
 LinEq1:  Iter= 14 NonCon=     1 RMS=2.58D-08 Max=6.59D-07 NDo=     1
 LinEq1:  Iter= 15 NonCon=     1 RMS=7.09D-09 Max=1.90D-07 NDo=     1
 LinEq1:  Iter= 16 NonCon=     1 RMS=2.17D-09 Max=4.59D-08 NDo=     1
 LinEq1:  Iter= 17 NonCon=     1 RMS=7.88D-10 Max=1.06D-08 NDo=     1
 LinEq1:  Iter= 18 NonCon=     1 RMS=3.31D-10 Max=6.92D-09 NDo=     1
 LinEq1:  Iter= 19 NonCon=     1 RMS=1.08D-10 Max=3.29D-09 NDo=     1
 LinEq1:  Iter= 20 NonCon=     1 RMS=3.83D-11 Max=1.88D-09 NDo=     1
 LinEq1:  Iter= 21 NonCon=     0 RMS=1.26D-11 Max=6.63D-10 NDo=     1
 Linear equations converged to 1.000D-10 1.000D-09 after    21 iterations.
 End of Minotr F.D. properties file   721 does not exist.
 End of Minotr F.D. properties file   722 does not exist.
 End of Minotr F.D. properties file   788 does not exist.
 Calling FoFJK, ICntrl=  10002127 FMM=F ISym2X=0 I1Cent= 0 IOpClX= 1 NMat=1 NMatS=1 NMatT=0.
 ***** Axes restored to original set *****
 -------------------------------------------------------------------
 Center     Atomic                   Forces (Hartrees/Bohr)
 Number     Number              X              Y              Z
 -------------------------------------------------------------------
      1        6          -0.000020283    0.000148762    0.000048123
      2        6           0.000127796   -0.000087284    0.000005221
      3        6          -0.000147930    0.000001149   -0.000188467
      4        1          -0.000034642    0.000008050    0.000031548
      5        1          -0.000004468    0.000001972    0.000006933
      6        1          -0.000002019    0.000005539    0.000016095
      7        8          -0.000612388   -0.000767273    0.000090956
      8        8           0.000320072    0.001018384    0.000039891
      9        1           0.000313974   -0.000258451   -0.000054292
     10        1          -0.000008982   -0.000015094    0.000005677
     11        1           0.000029846   -0.000021412    0.000010503
     12        6           0.000026897   -0.000058365   -0.000002647
     13        1          -0.000002925    0.000002017   -0.000001591
     14        1           0.000015018    0.000017521   -0.000006972
     15        1           0.000000035    0.000004486   -0.000000977
 -------------------------------------------------------------------
 Cartesian Forces:  Max     0.001018384 RMS     0.000230790

 GradGradGradGradGradGradGradGradGradGradGradGradGradGradGradGradGradGrad
 Berny optimization.
 FormGI is forming the generalized inverse of G from B-inverse, IUseBI=4.
 Internal  Forces:  Max     0.001088600 RMS     0.000213185
 Search for a saddle point.
 Step number   2 out of a maximum of  100
 All quantities printed in internal units (Hartrees-Bohrs-Radians)
 Swapping is turned off.
 Update second derivatives using D2CorX and points    1    2
 ITU=  0  0
     Eigenvalues ---   -0.06499   0.00172   0.00503   0.00715   0.00911
     Eigenvalues ---    0.01652   0.02162   0.03904   0.04674   0.05428
     Eigenvalues ---    0.05583   0.05633   0.06650   0.08470   0.08581
     Eigenvalues ---    0.09521   0.10115   0.11633   0.12296   0.13378
     Eigenvalues ---    0.14601   0.15495   0.16805   0.18529   0.19777
     Eigenvalues ---    0.22682   0.28767   0.31906   0.32811   0.33238
     Eigenvalues ---    0.33516   0.33699   0.34293   0.34502   0.35007
     Eigenvalues ---    0.35459   0.36255   0.43156   0.66240
 Eigenvectors required to have negative eigenvalues:
                          R2        R11       R10       A2        A1
   1                    0.74831  -0.60955   0.14937   0.14525  -0.08756
                          A3        A14       A21       D16       A13
   1                   -0.05769  -0.05375   0.04149  -0.03554  -0.03545
 RFO step:  Lambda0=1.829936808D-07 Lambda=-1.18952925D-05.
 Linear search not attempted -- option 19 set.
 Iteration  1 RMS(Cart)=  0.00977415 RMS(Int)=  0.00001602
 Iteration  2 RMS(Cart)=  0.00003360 RMS(Int)=  0.00000053
 Iteration  3 RMS(Cart)=  0.00000000 RMS(Int)=  0.00000053
 Variable       Old X    -DE/DX   Delta X   Delta X   Delta X     New X
                                 (Linear)    (Quad)   (Total)
    R1        2.48051   0.00010   0.00000   0.00010   0.00010   2.48061
    R2        2.65771   0.00013   0.00000   0.00087   0.00087   2.65858
    R3        2.79309   0.00001   0.00000  -0.00005  -0.00005   2.79304
    R4        2.05506   0.00000   0.00000  -0.00000  -0.00000   2.05506
    R5        2.04539  -0.00002   0.00000  -0.00004  -0.00004   2.04535
    R6        2.06162  -0.00005   0.00000  -0.00008  -0.00008   2.06153
[...]
 ! D12   D(9,1,12,15)          -59.0052         -DE/DX =    0.0                 !
 ! D13   D(4,3,7,8)             65.0724         -DE/DX =    0.0                 !
 ! D14   D(5,3,7,8)           -176.146          -DE/DX =    0.0                 !
 ! D15   D(6,3,7,8)            -57.1704         -DE/DX =    0.0                 !
 ! D16   D(3,7,8,9)            -91.9929         -DE/DX =    0.0                 !
 --------------------------------------------------------------------------------
 GradGradGradGradGradGradGradGradGradGradGradGradGradGradGradGradGradGrad


 ----------------------------------------------------------------------

 Electric dipole moment (input orientation):
 (Debye = 10**-18 statcoulomb cm , SI units = C m)
                  (au)            (Debye)         (10**-30 SI)
   Tot        0.100067D+01      0.254346D+01      0.848405D+01
   x          0.525597D+00      0.133593D+01      0.445619D+01
   y         -0.383550D+00     -0.974887D+00     -0.325187D+01
   z         -0.760252D+00     -0.193237D+01     -0.644568D+01

 Dipole polarizability, Alpha (input orientation).
 (esu units = cm**3 , SI units = C**2 m**2 J**-1)
 Alpha(0;0):
               (au)            (10**-24 esu)      (10**-40 SI)
   iso        0.708146D+02      0.104936D+02      0.116758D+02
   aniso      0.434613D+02      0.644030D+01      0.716580D+01
   xx         0.965185D+02      0.143026D+02      0.159137D+02
   yx        -0.300467D+01     -0.445246D+00     -0.495403D+00
   yy         0.688962D+02      0.102094D+02      0.113594D+02
   zx        -0.647092D+00     -0.958891D-01     -0.106691D+00
   zy        -0.226411D+01     -0.335506D+00     -0.373301D+00
   zz         0.470293D+02      0.696902D+01      0.775408D+01

 ----------------------------------------------------------------------

 Dipole orientation:
     6          2.20086432          0.03963239          1.33816118
     6          1.84758181          2.46127736          1.74347936
     6         -4.35009511          0.25847569         -0.86408458
     1         -3.78165431          0.11372557          1.11221478
     1         -5.62563930          1.85207066         -1.11400088
     1         -5.26314467         -1.48423281         -1.46497390
     8         -2.23314115          0.80064002         -2.42402116
     8         -0.58640157         -1.29957959         -2.29958543
     1          0.72842314         -0.79561771         -0.71123101
     1          2.83045250          3.44130120          3.25899715
     1          0.57962308          3.56023323          0.57387920
     6          3.74961117         -1.96380201          2.51665311
     1          5.07809050         -2.76390457          1.16199461
     1          4.82299173         -1.19424491          4.10545499
     1          2.56941038         -3.50160934          3.21113670

 Electric dipole moment (dipole orientation):
 (Debye = 10**-18 statcoulomb cm , SI units = C m)
                  (au)            (Debye)         (10**-30 SI)
   Tot        0.100067D+01      0.254346D+01      0.848405D+01
   x          0.000000D+00      0.000000D+00      0.000000D+00
   y          0.000000D+00      0.000000D+00      0.000000D+00
   z          0.100067D+01      0.254346D+01      0.848405D+01

 Dipole polarizability, Alpha (dipole orientation).
 (esu units = cm**3 , SI units = C**2 m**2 J**-1)
 Alpha(0;0):
               (au)            (10**-24 esu)      (10**-40 SI)
   iso        0.708146D+02      0.104936D+02      0.116758D+02
   aniso      0.434613D+02      0.644030D+01      0.716580D+01
   xx         0.810788D+02      0.120146D+02      0.133681D+02
   yx        -0.388516D+01     -0.575722D+00     -0.640577D+00
   yy         0.670626D+02      0.993765D+01      0.110571D+02
   zx         0.226390D+02      0.335476D+01      0.373267D+01
   zy         0.459213D+01      0.680484D+00      0.757141D+00
   zz         0.643026D+02      0.952866D+01      0.106021D+02

 ----------------------------------------------------------------------
 1\1\GINC-N58\Freq\UB2PLYPD3-FC\CC-pVTZ\C4H9O2(2)\ROOT\07-Jun-2019\0\\#
 N Geom=AllCheck Guess=TCheck SCRF=Check GenChk UB2PLYPD3(FC)/CC-pVTZ F
 req\\Title Card Required\\0,2\C,1.3515997978,-0.1573997632,0.081771110
 4\C,1.1600096018,-1.435492257,0.3118056324\C,-2.1969008171,-0.21345375
 54,-0.8092746121\H,-1.3851837871,-0.5096887969,-1.4751843309\H,-2.9320
 092737,-1.0128761178,-0.7401041511\H,-2.665829846,0.6983592596,-1.1749
 468576\O,-1.7186839052,-0.0318405265,0.51624625\O,-0.8221478507,1.0612
 174336,0.4979377973\H,0.1755165674,0.5742309802,0.3270296452\H,1.96048
 5167,-2.158691157,0.1744744261\H,0.202608125,-1.808017011,0.6525043773
 \C,2.4915221973,0.6689911574,-0.3679133385\H,2.7562263881,1.4122309565
 ,0.3836724068\H,3.3654955119,0.0384836003,-0.5522394545\H,2.2510261235
 ,1.2025139973,-1.2870679007\\Version=ES64L-G16RevB.01\State=2-A\HF=-30
 7.5691994\MP2=-307.9523149\PUHF=-307.575576\PMP2-0=-307.9531585\S2=0.7
 7776\S2-1=0.749115\S2A=0.750541\RMSD=1.628e-09\RMSF=5.829e-06\ZeroPoin
 t=0.1177836\Thermal=0.1264588\Dipole=0.5255967,-0.3835502,-0.7602516\D
 ipoleDeriv=1.1121094,-0.0505338,-0.1298333,-0.6965374,0.4001206,-0.058
 0989,-0.2665325,-0.0613527,-0.1193443,-0.3353813,-0.0335571,-0.063493,
 0.0128314,-0.2809611,0.0357144,0.0139787,0.0058747,-0.2515604,0.501454
 9,-0.0350099,0.0640524,0.016651,0.2817008,0.0227086,0.4048479,-0.02822
 43,0.4977596,-0.0825784,0.0498256,0.1126134,0.0273038,0.0237777,-0.028
 66,-0.048829,-0.0266769,-0.0487097,-0.0347482,-0.0790907,-0.0221756,-0
 .1145853,-0.0137041,-0.0017404,-0.0338163,0.0230165,0.0280254,-0.01142
 92,0.0440086,-0.0402696,0.1313746,-0.0741301,0.0801467,-0.0944686,0.00
 42622,-0.004876,-0.7802462,0.1926015,-0.0036034,-0.6902138,-0.0489561,
 0.0019413,-0.1605095,0.0200001,-0.4014546,0.8461783,-0.270416,-0.11230
 5,0.4667951,-0.2928804,-0.0554873,-0.1782515,0.0347327,-0.2575479,-1.0
 122107,0.2457712,0.0404814,0.4841872,-0.028941,-0.0165322,0.2089126,-0
 .0415325,0.1369672,-0.0023073,0.0831346,0.0286321,0.1278457,0.002944,0
 .0024051,0.0144105,-0.0053411,0.1235128,0.047084,-0.0443808,0.0542626,
 -0.0149478,0.0705554,0.0030312,0.0432247,0.0147031,0.1401642,-0.190423
 4,-0.0623343,0.056839,0.3144575,-0.0528416,0.0154466,0.0585666,0.04107
 52,0.1230419,0.056045,-0.0642997,0.0172789,-0.0560226,-0.005158,-0.053
 7894,-0.0275768,-0.0735588,-0.0023968,-0.1616429,0.0412845,0.0421557,0
 .0072094,-0.0106424,-0.007855,0.0724611,-0.0001579,0.0711907,0.048096,
 -0.0170037,-0.0446358,-0.0163488,0.0291161,0.0607693,-0.0064178,0.0931
 797,-0.0347721\Polar=96.5184516,-3.004667,68.8961946,-0.647092,-2.2641
 068,47.0292951\PG=C01 [X(C4H9O2)]\NImag=1\\0.28543529,0.18512203,0.735
 80814,-0.07708480,-0.13913080,0.15104856,-0.08271699,-0.06382362,0.021
 48515,0.56403460,-0.09116885,-0.54537380,0.09520711,0.03337064,0.81314
 966,0.02446901,0.08811517,-0.06027261,-0.14372275,-0.10860442,0.155373
 55,-0.00378156,0.00299465,-0.00018478,0.00081294,-0.00045789,-0.000155
 67,0.57573868,-0.00181422,0.00166246,0.00093918,0.00056642,-0.00011396
 ,-0.00033432,0.00720941,0.60440283,-0.00920911,0.00781573,0.00163199,0
 .00244569,-0.00207519,-0.00110792,-0.05483162,-0.03713064,0.46744447,-
 0.00004321,-0.00012312,0.00005430,-0.00027295,0.00027303,-0.00008487,-
 0.20736000,0.05458876,0.11821170,0.21460000,0.00017761,0.00013590,0.00
 000104,0.00004236,-0.00024004,-0.00012352,0.05468144,-0.07282431,-0.03
 750601,-0.05923740,0.06915084,0.00242955,-0.00242436,-0.00002613,-0.00
 062989,0.00085201,0.00040554,0.11136061,-0.03934320,-0.12955145,-0.124
 56949,0.04586994,0.15888802,0.00055508,-0.00050123,-0.00018730,-0.0003
 4355,0.00015859,0.00014589,-0.17023262,-0.13013671,0.01403357,-0.01398
 003,-0.01779524,0.00156518,0.18324096,0.00037551,-0.00026593,-0.000013
 91,-0.00016595,0.00012725,0.00002063,-0.13191882,-0.19520868,0.0158739
 7,0.00723032,0.00803295,0.00005691,0.14826849,0.20774820,0.00079434,-0
 .00059956,-0.00002962,-0.00033037,0.00034294,0.00008586,0.02206799,0.0
 2464347,-0.05366867,0.01111070,0.01473240,0.00065585,-0.01104763,-0.01
 433890,0.05793886,0.00036377,-0.00004978,-0.00007479,-0.00018601,-0.00
 022055,-0.00002715,-0.09920745,0.09450374,-0.02909620,-0.00933027,0.02
 230698,-0.00657558,0.01138960,-0.01849795,0.00780529,0.10118864,-0.000
 79136,0.00046001,0.00024595,0.00020861,-0.00011398,0.00001269,0.097556
 55,-0.24671705,0.07022235,0.00207417,-0.00601549,0.00268239,0.01064222
 ,-0.01667106,0.00574060,-0.10574821,0.25810683,0.00123246,-0.00115244,
 -0.00024565,-0.00028222,0.00026563,0.00028042,-0.02990938,0.06191729,-
 0.06909647,0.00795446,-0.01565320,0.00816018,-0.00002734,0.00193760,0.
 00039362,0.04114267,-0.07631910,0.08830955,0.01797970,-0.01451017,-0.0
 0177630,-0.00458262,0.00187563,0.00102783,-0.07211783,0.00196808,-0.04
 476661,0.01216075,-0.00227921,0.01626439,-0.01072704,-0.00490907,-0.02
 404228,-0.00581397,-0.00491157,-0.02377741,0.21373403,0.02930758,-0.02
 344868,-0.00588464,-0.00686826,0.00466293,0.00216156,-0.00441578,-0.06
 706469,-0.00335923,-0.00709825,0.00075540,-0.01355618,-0.01131132,-0.0
 0585753,-0.02638678,0.00448121,0.00827637,0.02620785,0.12053926,0.2065
 3427,0.00399269,-0.00204956,-0.00077103,-0.00127890,0.00043681,0.00059
 517,-0.01787557,0.02523465,-0.21941429,-0.01228473,-0.00768737,-0.0411
 7898,-0.00083472,-0.00103065,0.00063344,-0.01468402,-0.00128298,-0.030
 52894,0.05663409,-0.01020479,0.33894956,-0.11988220,0.08325178,0.02312
 391,0.01205818,-0.01236196,-0.00227177,-0.02915960,-0.03154415,-0.0096
 7912,0.00453578,0.00284877,0.00422028,0.00019672,-0.00011347,-0.005903
 99,0.00266391,-0.00006969,0.00546607,-0.09506314,-0.07043477,-0.011753
 78,0.17219982,0.02088746,-0.00536663,-0.00324180,0.00518657,-0.0002235
 6,-0.00201705,-0.02061267,-0.02207690,-0.00920863,0.00120252,0.0006924
 2,0.00396551,0.00031961,0.00210281,-0.00389015,0.00281682,0.00350794,0
 .00206736,-0.08612523,-0.15724510,-0.00789757,0.04237063,0.25101885,0.
 02033812,-0.01284701,0.00093979,-0.00194208,0.00191679,-0.00015924,-0.
 02563776,-0.03578393,0.00420956,-0.00091968,0.00033272,0.00267265,-0.0
 0374284,-0.00218939,-0.00543705,0.00105908,-0.00110852,0.00266446,0.01
 209506,0.02169089,-0.04683828,0.00943401,0.02960758,0.05104825,0.08961
 473,-0.07639817,-0.02181148,-0.01668810,0.02031594,0.00397427,0.004401
 29,0.00424137,0.01119172,-0.00030904,-0.00057323,-0.00365513,0.0000287
 5,-0.00019018,-0.00021210,-0.00094889,0.00086872,-0.00168932,-0.050964
 72,-0.04991933,-0.00144490,0.04346391,0.03039043,-0.00884504,-0.050918
 24,-0.05080356,0.01229339,0.00823097,0.01652576,-0.01775186,-0.0019967
 3,-0.00440486,-0.00195312,-0.00276272,0.00087221,0.00050845,0.00108055
 ,0.00010090,-0.00009234,-0.00053428,0.00041336,-0.00067780,0.00054172,
 -0.01671514,0.02430903,0.00408384,-0.00376230,-0.06624337,-0.00220666,
 0.06075551,0.05386586,-0.01978666,0.01140640,-0.01838192,0.00302126,-0
 .00191647,0.00347175,-0.00420927,-0.00051338,-0.00079666,0.00037162,-0
 .00017786,0.00040957,0.00019825,-0.00032637,-0.00055092,0.00031344,-0.
 00004618,0.00024477,0.00805575,0.00985793,-0.00091216,-0.01150383,-0.0
 0882345,-0.00837953,0.01761432,-0.00874325,0.02175901,0.00286633,-0.00
 148517,0.00276660,-0.19689648,0.13033174,0.03104078,0.00019848,-0.0000
 5295,-0.00008787,-0.00007677,0.00001981,0.00010299,0.00002609,0.000012
 60,0.00002454,-0.00004771,0.00001504,-0.00000028,-0.00012747,0.0011997
 8,0.00000786,-0.00161397,-0.00083168,0.00043259,0.00322279,-0.00092621
 ,-0.00001105,0.20523781,0.02174864,-0.02541278,-0.00149592,0.13323420,
 -0.16252468,-0.02133014,-0.00018061,-0.00015902,-0.00081315,-0.0000017
 8,0.00001186,0.00022312,0.00007102,0.00003080,0.00010219,0.00001277,-0
 .00004182,0.00011438,0.00154490,0.00249185,0.00030401,-0.00183172,-0.0
 0182819,0.00015149,0.00060568,-0.00255148,0.00062413,-0.14615227,0.178
 53419,-0.00013180,0.00503848,0.01080844,0.03034887,-0.02031351,-0.0379
 0462,0.00030148,-0.00008795,-0.00043594,-0.00035282,0.00014550,-0.0000
 2265,-0.00004381,0.00000488,-0.00000108,-0.00008408,0.00001967,0.00004
 474,-0.00014595,-0.00086823,-0.00000109,0.00125286,0.00052002,0.000678
 59,-0.00064027,0.00135832,0.00228692,-0.03605701,0.02079804,0.02340186
 ,-0.00150272,-0.00484917,0.00072442,-0.27338851,-0.08306155,0.08383356
 ,-0.00044064,-0.00012870,-0.00088701,0.00005953,0.00005453,0.00011672,
 -0.00005465,0.00001282,-0.00002903,0.00011371,-0.00005065,0.00024096,0
 .00027865,0.00061671,0.00042843,-0.00049069,-0.00088227,-0.00009850,0.
 00010472,0.00014696,-0.00049128,-0.01391841,-0.00803879,0.00722122,0.2
 8692385,-0.02734714,-0.01290670,0.00972703,-0.08351262,-0.07998845,0.0
 3175727,0.00047338,0.00032507,0.00077724,0.00006890,-0.00005330,0.0000
 0207,-0.00006575,-0.00003322,-0.00002539,-0.00009214,0.00001545,-0.000
 20579,-0.00015009,0.00115343,-0.00033597,-0.00007592,-0.00108906,-0.00
 050442,-0.00209676,-0.00044892,0.00064936,0.01788490,0.00814784,-0.005
 63514,0.09441578,0.08860760,0.00351350,0.00279488,-0.00292495,0.084430
 00,0.03197214,-0.06323487,-0.00062169,0.00054498,0.00070421,0.00027743
 ,0.00010118,-0.00042167,-0.00007450,0.00000075,-0.00001298,0.00012267,
 -0.00011202,-0.00024578,0.00007969,-0.00086104,-0.00057201,-0.00022942
 ,0.00046926,-0.00080108,-0.00006560,-0.00045336,-0.00108278,0.00341097
 ,0.00206057,0.00488857,-0.09328216,-0.03795404,0.05429550,-0.15895820,
 -0.08430999,0.03818519,-0.00038196,0.00079665,0.00190916,0.00074796,0.
 00044637,0.00207312,-0.00000127,-0.00011003,-0.00056772,-0.00010532,-0
 .00008495,-0.00019166,-0.00007944,0.00012992,-0.00028873,-0.00376936,-
 0.00484211,-0.00070376,0.01075368,0.00272704,-0.00181955,-0.02107218,0
 .00011366,0.00586028,0.00078634,0.00038976,-0.00212554,0.00213829,0.00
 153360,0.00274337,0.49478848,-0.06822615,-0.11745925,0.02647098,-0.030
 04364,-0.01391210,0.01134052,-0.00122044,-0.00047301,-0.00278567,0.000
 16445,-0.00005889,0.00075886,0.00028366,0.00013577,0.00031830,0.000136
 98,-0.00021227,0.00038901,0.00535888,0.00717872,0.00078946,-0.01071910
 ,-0.00447586,0.00137931,0.01620740,-0.00260468,-0.00300030,-0.00068822
 ,0.00284110,-0.00079798,0.00163831,-0.00330307,0.00156215,-0.02515990,
 0.53863712,0.03594642,0.03186183,-0.08416231,0.00574115,0.00236215,0.0
 0384653,-0.00020521,-0.00002310,0.00027472,0.00017944,-0.00006439,0.00
 001004,-0.00000264,0.00000097,-0.00004099,0.00002119,-0.00000904,-0.00
 000211,0.00009541,0.00055195,-0.00022082,-0.00172570,-0.00041530,-0.00
 037162,0.00479935,0.00061619,0.00111589,-0.00178441,-0.00127500,-0.004
 80543,0.00271962,0.00156271,0.01067437,0.01754937,0.00762129,0.5361196
 3,-0.00861794,-0.02024007,-0.01730618,-0.00218406,-0.00003670,0.000818
 27,0.00003357,-0.00002108,-0.00018477,0.00003407,-0.00003709,0.0000872
 0,0.00003063,0.00001387,0.00004679,-0.00001937,0.00000098,0.00003215,0
 .00016152,0.00039795,0.00014334,-0.00079292,0.00016936,0.00001498,0.00
 113239,-0.00063620,-0.00008502,0.00008270,0.00001731,0.00019578,0.0003
 9161,-0.00038512,0.00107034,-0.06022047,-0.04154606,-0.04423835,0.0655
 0090,-0.00583386,-0.01666993,-0.00998700,-0.00263332,0.00092126,0.0005
 6210,0.00007036,0.00001250,0.00007538,0.00000167,-0.00002342,0.0000054
 8,0.00000238,-0.00000621,-0.00000669,-0.00001778,0.00001404,-0.0000029
 5,-0.00021289,-0.00010434,-0.00001457,-0.00004658,0.00015594,-0.000058
 89,0.00000808,0.00011500,0.00020379,-0.00017177,0.00019115,-0.00085107
 ,0.00036772,-0.00020961,0.00142729,-0.04085273,-0.16627759,-0.12753236
 ,0.04985909,0.18260812,0.00209602,0.00862632,0.01095475,0.00146464,0.0
 0141781,-0.00103302,0.00002683,-0.00001710,-0.00000255,-0.00000064,0.0
 0001872,-0.00001669,-0.00000642,-0.00000193,0.00000350,0.00000189,-0.0
 0000134,-0.00000484,-0.00008153,-0.00007389,0.00000640,0.00009981,0.00
 001704,-0.00007996,-0.00036312,-0.00000045,0.00023576,0.00012154,-0.00
 001511,0.00038656,-0.00026542,0.00012030,-0.00098845,-0.04259476,-0.12
 632183,-0.17500720,0.04661657,0.13748046,0.18856889,-0.02690688,0.0098
 0236,0.00712194,0.00346776,0.00115824,-0.00138533,0.00043434,0.0001488
 4,0.00084324,-0.00002950,-0.00000233,-0.00020196,-0.00007615,-0.000040
 31,-0.00008308,-0.00004786,0.00006353,-0.00012276,-0.00141016,-0.00197
 836,-0.00024479,0.00177520,0.00220636,-0.00030801,-0.00219492,-0.00112
 873,0.00080325,0.00024754,-0.00142945,0.00027338,0.00010522,0.00006017
 ,-0.00020329,-0.20439309,0.12302970,0.03249255,0.00689962,-0.00484961,
 -0.00106129,0.22753577,-0.01424523,0.01001171,0.00324167,0.00064419,0.
 00082464,-0.00035637,0.00024925,0.00011371,0.00064634,-0.00001022,-0.0
 0002261,-0.00016143,-0.00004749,-0.00002904,-0.00006462,-0.00003996,0.
 00005068,-0.00008773,-0.00134603,-0.00147461,-0.00021682,0.00252230,0.
 00085896,-0.00037307,-0.00413182,0.00111628,0.00094344,0.00053491,-0.0
 0017789,-0.00012104,0.00024525,0.00039259,-0.00016472,0.11768302,-0.13
 391389,-0.02432861,0.01732341,-0.01247832,-0.00187169,-0.13062868,0.14
 402786,0.01008483,-0.00416620,-0.00196499,-0.00130926,-0.00051867,-0.0
 0017672,-0.00012443,-0.00006622,-0.00029772,0.00002097,-0.00000008,0.0
 0006793,0.00003137,0.00001326,0.00004010,0.00003481,-0.00003068,0.0000
 4331,0.00045489,0.00079377,0.00017330,-0.00084204,-0.00086687,-0.00005
 218,0.00135999,0.00037935,0.00045186,0.00000864,0.00053281,0.00045134,
 -0.00020997,-0.00013104,-0.00038781,0.03320126,-0.02596013,-0.05236954
 ,0.01837212,-0.01251624,-0.00349557,-0.03913068,0.02676224,0.05184449,
 0.00559480,-0.01488032,0.02496413,-0.00273226,-0.00097296,0.00042877,-
 0.00006757,0.00002480,-0.00005672,0.00001293,-0.00009697,0.00005285,0.
 00005155,0.00000709,-0.00000950,-0.00003867,0.00001177,0.00002867,0.00
 026167,0.00032570,-0.00010124,-0.00064467,0.00017505,-0.00006039,0.001
 12753,-0.00055134,-0.00015107,0.00001273,0.00001035,-0.00001233,-0.000
 31996,-0.00071120,-0.00117128,-0.06023345,0.03078413,-0.05158819,-0.00
 243225,0.00430925,-0.00605410,-0.00540689,0.01124710,-0.02195250,0.064
 81450,0.00261155,-0.01346790,0.01569014,-0.00273132,0.00055670,0.00079
 261,-0.00002396,0.00007417,0.00023024,-0.00000526,-0.00004977,-0.00001
 165,0.00001087,-0.00001376,-0.00003351,-0.00000550,0.00001816,-0.00001
 962,-0.00012735,-0.00016704,-0.00012849,-0.00003383,0.00021175,-0.0000
 0689,-0.00008362,0.00011556,-0.00013780,0.00030948,0.00044707,0.000790
 03,-0.00048695,-0.00060964,-0.00138800,0.03153971,-0.10610209,0.109070
 71,-0.00487966,0.01175140,-0.01937733,0.00358828,-0.00930006,0.0157746
 9,-0.02968245,0.11653544,0.00131543,0.00671112,-0.00660432,0.00055873,
 -0.00134512,-0.00016982,-0.00000154,0.00002027,0.00010671,0.00003161,0
 .00001092,-0.00005221,-0.00000705,-0.00000783,-0.00000991,0.00004078,-
 0.00001377,-0.00001726,-0.00011702,-0.00006917,0.00007973,0.00031270,-
 0.00028593,-0.00009435,-0.00021268,0.00040652,0.00012847,0.00002412,0.
 00001859,0.00022379,-0.00002155,0.00019580,0.00010973,-0.05323003,0.10
 823603,-0.23506114,-0.00558322,0.01121526,-0.01952757,0.00120685,-0.00
 384758,0.00567219,0.05568289,-0.12124512,0.25521596\\0.00000212,0.0000
 0554,-0.00000046,-0.00000344,-0.00000149,-0.00000102,-0.00000134,0.000
 00006,-0.00000134,0.00000180,-0.00000123,0.00000025,0.00000010,0.00000
 017,0.00000011,0.00000054,-0.00000022,-0.00000050,-0.00000752,-0.00002
 287,0.00000420,0.00000953,0.00002643,-0.00000499,0.00000016,-0.0000059
 9,0.00000385,-0.00000095,-0.00000040,-0.00000047,-0.00000177,0.0000002
 9,-0.00000045,0.00000011,-0.00000103,0.00000074,-0.00000006,0.00000028
 ,-0.00000009,0.00000055,0.00000058,0.00000018,0.00000016,-0.00000012,-
 0.00000001\\\@


 I think that all right-thinking people in this
 country are sick and tired of being told that
 ordinary, decent people are fed up in this country
 with being sick and tired.  I'm certainly not!
 But I'm sick and tired of being told that I am!
                               -- Monty Python
 Job cpu time:       1 days 12 hours  3 minutes 44.1 seconds.
 Elapsed time:       0 days  0 hours 55 minutes 50.3 seconds.
 File lengths (MBytes):  RWF=  57000 Int=      0 D2E=      0 Chk=     16 Scr=      1
 Normal termination of Gaussian 16 at Fri Jun  7 13:32:07 2019.
