 Entering Gaussian System, Link 0=g16
 Initial command:
 /ichec/packages/gaussian/16b01/l1.exe "/localscratch/341085/Gau-11957.inp" -scrdir="/localscratch/341085/"
 Entering Link 1 = /ichec/packages/gaussian/16b01/l1.exe PID=     13312.
  
 Copyright (c) 1988-2017, Gaussian, Inc.  All Rights Reserved.
  
 This is part of the Gaussian(R) 16 program.  It is based on
 the Gaussian(R) 09 system (copyright 2009, Gaussian, Inc.),
 the Gaussian(R) 03 system (copyright 2003, Gaussian, Inc.),
 the Gaussian(R) 98 system (copyright 1998, Gaussian, Inc.),
 the Gaussian(R) 94 system (copyright 1995, Gaussian, Inc.),
 the Gaussian 92(TM) system (copyright 1992, Gaussian, Inc.),
 the Gaussian 90(TM) system (copyright 1990, Gaussian, Inc.),
 the Gaussian 88(TM) system (copyright 1988, Gaussian, Inc.),
 the Gaussian 86(TM) system (copyright 1986, Carnegie Mellon
 University), and the Gaussian 82(TM) system (copyright 1983,
 Carnegie Mellon University). Gaussian is a federally registered
 trademark of Gaussian, Inc.
  
 This software contains proprietary and confidential information,
 including trade secrets, belonging to Gaussian, Inc.
  
 This software is provided under written license and may be
 used, copied, transmitted, or stored only in accord with that
 written license.
  
 The following legend is applicable only to US Government
 contracts under FAR:
  
                    RESTRICTED RIGHTS LEGEND
  
 Use, reproduction and disclosure by the US Government is
 subject to restrictions as set forth in subparagraphs (a)
 and (c) of the Commercial Computer Software - Restricted
 Rights clause in FAR 52.227-19.
  
 Gaussian, Inc.
 340 Quinnipiac St., Bldg. 40, Wallingford CT 06492
  
  
 ---------------------------------------------------------------
 Warning -- This program may not be used in any manner that
 competes with the business of Gaussian, Inc. or will provide
 assistance to any competitor of Gaussian, Inc.  The licensee
 of this program is prohibited from giving any competitor of
 Gaussian, Inc. access to this program.  By using this program,
 the user acknowledges that Gaussian, Inc. is engaged in the
 business of creating and licensing software in the field of
 computational chemistry and represents and warrants to the
 licensee that it is not a competitor of Gaussian, Inc. and that
 it will not use this program in any manner prohibited above.
 ---------------------------------------------------------------
  

 Cite this work as:
 Gaussian 16, Revision B.01,
 M. J. Frisch, G. W. Trucks, H. B. Schlegel, G. E. Scuseria, 
 M. A. Robb, J. R. Cheeseman, G. Scalmani, V. Barone, 
 G. A. Petersson, H. Nakatsuji, X. Li, M. Caricato, A. V. Marenich, 
 J. Bloino, B. G. Janesko, R. Gomperts, B. Mennucci, H. P. Hratchian, 
 J. V. Ortiz, A. F. Izmaylov, J. L. Sonnenberg, D. Williams-Young, 
 F. Ding, F. Lipparini, F. Egidi, J. Goings, B. Peng, A. Petrone, 
 T. Henderson, D. Ranasinghe, V. G. Zakrzewski, J. Gao, N. Rega, 
 G. Zheng, W. Liang, M. Hada, M. Ehara, K. Toyota, R. Fukuda, 
 J. Hasegawa, M. Ishida, T. Nakajima, Y. Honda, O. Kitao, H. Nakai, 
 T. Vreven, K. Throssell, J. A. Montgomery, Jr., J. E. Peralta, 
 F. Ogliaro, M. J. Bearpark, J. J. Heyd, E. N. Brothers, K. N. Kudin, 
 V. N. Staroverov, T. A. Keith, R. Kobayashi, J. Normand, 
 K. Raghavachari, A. P. Rendell, J. C. Burant, S. S. Iyengar, 
 J. Tomasi, M. Cossi, J. M. Millam, M. Klene, C. Adamo, R. Cammi, 
 J. W. Ochterski, R. L. Martin, K. Morokuma, O. Farkas, 
 J. B. Foresman, and D. J. Fox, Gaussian, Inc., Wallingford CT, 2016.
 
 ******************************************
 Gaussian 16:  ES64L-G16RevB.01 20-Dec-2017
                 5-Jun-2019 
 ******************************************
 %mem=80GB
 %nproc=40
 Will use up to   40 processors via shared memory.
 ----------------------------------------------------------------------
 # opt=(calcfc,ts,noeigentest,maxcyc=500) freq=noraman uB2PLYPD3/cc-pvt
 z
 ----------------------------------------------------------------------
 1/5=1,6=500,10=4,11=1,18=20,38=1/1,3;
 2/9=110,12=2,17=6,18=5,40=1/2;
 3/5=16,6=1,11=2,25=1,30=1,71=2,74=-60,116=2,140=1/1,2,3;
 4//1;
 5/5=2,38=5/2;
 8/6=3,8=1,10=1,19=11,30=-1/1;
 9/15=3,16=-3/6;
 11/6=1,8=1,15=11,17=12,24=-1,27=1,28=-2,29=300,32=6,42=3/1,2,10;
 10/6=2,21=1/2;
 8/6=4,8=1,10=1,19=11,30=-1/11,4;
 10/5=1,20=4/2;
 11/12=2,14=11,16=1,17=2,28=-2,42=3,76=2/2,10,12;
 6/7=2,8=2,9=2,10=2/1;
 7/10=1,12=2,25=1,44=2/1,2,3,16;
 1/5=1,6=500,10=4,11=1,18=20/3(2);
 2/9=110/2;
 99//99;
 2/9=110/2;
 3/5=16,6=1,11=2,25=1,30=1,71=1,74=-60,116=2/1,2,3;
 4/5=5,16=3,69=1/1;
 5/5=2,38=5/2;
 8/6=4,10=1/1;
 9/15=2,16=-3/6;
 10/5=1/2;
 7/12=2/1,2,3,16;
 1/5=1,6=500,11=1,18=20/3(-8);
 2/9=110/2;
 6/7=2,8=2,9=2,10=2/1;
 99/9=10/99;
 -------------------
 Title Card Required
 -------------------
 Symbolic Z-matrix:
 Charge =  0 Multiplicity = 2
 C                    -1.73      0.40464   0.39193 
 C                    -1.91134  -0.70771  -0.26679 
 H                    -2.84488  -1.26284  -0.20453 
 H                    -2.35367   0.97606   1.06565 
 H                    -1.13246  -1.11167  -0.90709 
 C                     1.62198  -0.74537   0.46581 
 H                     0.82976  -1.00907   1.17066 
 H                     2.0449   -1.64586   0.02412 
 H                     2.39733  -0.17236   0.97331 
 O                     1.09053  -0.00326  -0.61448 
 O                     0.61073   1.19703  -0.11305 
 H                    -0.4349    0.96629   0.15241 
 
 Add virtual bond connecting atoms H12        and C1         Dist= 2.71D+00.

 GradGradGradGradGradGradGradGradGradGradGradGradGradGradGradGradGradGrad
 Berny optimization.
 Initialization pass.
                           ----------------------------
                           !    Initial Parameters    !
                           ! (Angstroms and Degrees)  !
 --------------------------                            --------------------------
 ! Name  Definition              Value          Derivative Info.                !
 --------------------------------------------------------------------------------
 ! R1    R(1,2)                  1.3054         calculate D2E/DX2 analytically  !
 ! R2    R(1,4)                  1.0814         calculate D2E/DX2 analytically  !
 ! R3    R(1,12)                 1.4318         calculate D2E/DX2 analytically  !
 ! R4    R(2,3)                  1.0879         calculate D2E/DX2 analytically  !
 ! R5    R(2,5)                  1.0862         calculate D2E/DX2 analytically  !
 ! R6    R(6,7)                  1.0927         calculate D2E/DX2 analytically  !
 ! R7    R(6,8)                  1.0885         calculate D2E/DX2 analytically  !
 ! R8    R(6,9)                  1.0895         calculate D2E/DX2 analytically  !
 ! R9    R(6,10)                 1.4143         calculate D2E/DX2 analytically  !
 ! R10   R(10,11)                1.3865         calculate D2E/DX2 analytically  !
 ! R11   R(11,12)                1.1032         calculate D2E/DX2 analytically  !
 ! A1    A(2,1,4)              133.1982         calculate D2E/DX2 analytically  !
 ! A2    A(2,1,12)             112.0546         calculate D2E/DX2 analytically  !
 ! A3    A(4,1,12)             114.7466         calculate D2E/DX2 analytically  !
 ! A4    A(1,2,3)              121.6772         calculate D2E/DX2 analytically  !
 ! A5    A(1,2,5)              120.9805         calculate D2E/DX2 analytically  !
 ! A6    A(3,2,5)              117.341          calculate D2E/DX2 analytically  !
 ! A7    A(7,6,8)              110.1087         calculate D2E/DX2 analytically  !
 ! A8    A(7,6,9)              110.0238         calculate D2E/DX2 analytically  !
 ! A9    A(7,6,10)             110.2986         calculate D2E/DX2 analytically  !
 ! A10   A(8,6,9)              110.3411         calculate D2E/DX2 analytically  !
 ! A11   A(8,6,10)             105.6723         calculate D2E/DX2 analytically  !
 ! A12   A(9,6,10)             110.3187         calculate D2E/DX2 analytically  !
 ! A13   A(6,10,11)            107.9413         calculate D2E/DX2 analytically  !
 ! A14   A(10,11,12)           103.53           calculate D2E/DX2 analytically  !
 ! A15   L(1,12,11,7,-1)       172.254          calculate D2E/DX2 analytically  !
 ! A16   L(1,12,11,7,-2)       171.2788         calculate D2E/DX2 analytically  !
 ! D1    D(4,1,2,3)              0.1624         calculate D2E/DX2 analytically  !
 ! D2    D(4,1,2,5)            179.718          calculate D2E/DX2 analytically  !
 ! D3    D(12,1,2,3)          -179.5336         calculate D2E/DX2 analytically  !
 ! D4    D(12,1,2,5)             0.022          calculate D2E/DX2 analytically  !
 ! D5    D(2,1,11,10)          -16.7424         calculate D2E/DX2 analytically  !
 ! D6    D(4,1,11,10)          162.325          calculate D2E/DX2 analytically  !
 ! D7    D(7,6,10,11)           64.6427         calculate D2E/DX2 analytically  !
 ! D8    D(8,6,10,11)         -176.3777         calculate D2E/DX2 analytically  !
 ! D9    D(9,6,10,11)          -57.111          calculate D2E/DX2 analytically  !
 ! D10   D(6,10,11,12)         -89.4144         calculate D2E/DX2 analytically  !
 --------------------------------------------------------------------------------
 Trust Radius=3.00D-01 FncErr=1.00D-07 GrdErr=1.00D-07 EigMax=2.50D+02 EigMin=1.00D-04
 Number of steps in this run=    100 maximum allowed number of steps=    100.
 Search for a saddle point of order  1.
 GradGradGradGradGradGradGradGradGradGradGradGradGradGradGradGradGradGrad

                          Input orientation:                          
 ---------------------------------------------------------------------
 Center     Atomic      Atomic             Coordinates (Angstroms)
 Number     Number       Type             X           Y           Z
 ---------------------------------------------------------------------
      1          6           0       -1.730001    0.404638    0.391925
      2          6           0       -1.911343   -0.707710   -0.266787
      3          1           0       -2.844883   -1.262838   -0.204530
      4          1           0       -2.353675    0.976062    1.065651
      5          1           0       -1.132464   -1.111670   -0.907093
      6          6           0        1.621979   -0.745371    0.465813
      7          1           0        0.829757   -1.009066    1.170658
      8          1           0        2.044896   -1.645862    0.024119
      9          1           0        2.397325   -0.172356    0.973309
     10          8           0        1.090532   -0.003263   -0.614482
     11          8           0        0.610734    1.197025   -0.113047
     12          1           0       -0.434895    0.966287    0.152410
 ---------------------------------------------------------------------
                    Distance matrix (angstroms):
                    1          2          3          4          5
     1  C    0.000000
     2  C    1.305414   0.000000
     3  H    2.092653   1.087906   0.000000
     4  H    1.081389   2.192290   2.620557   0.000000
     5  H    2.084152   1.086199   1.857101   3.121170   0.000000
     6  C    3.544538   3.608668   4.546426   4.373667   3.099355
     7  H    3.026111   3.109774   3.931733   3.753132   2.859701
     8  H    4.311575   4.076344   4.910084   5.225581   3.353824
     9  H    4.207820   4.515425   5.482445   4.888700   4.108240
    10  O    3.022357   3.102965   4.152358   3.955311   2.501179
    11  O    2.522284   3.164257   4.242710   3.197792   2.999887
    12  H    1.431823   2.271099   3.302188   2.125046   2.434554
                    6          7          8          9         10
     6  C    0.000000
     7  H    1.092683   0.000000
     8  H    1.088502   1.787910   0.000000
     9  H    1.089523   1.787820   1.787844   0.000000
    10  O    1.414283   2.065519   2.004184   2.063342   0.000000
    11  O    2.265082   2.561778   3.187106   2.499456   1.386483
    12  H    2.694202   2.556989   3.604046   3.160989   1.963435
                   11         12
    11  O    0.000000
    12  H    1.103199   0.000000
 Stoichiometry    C3H7O2(2)
 Framework group  C1[X(C3H7O2)]
 Deg. of freedom    30
 Full point group                 C1      NOp   1
 Largest Abelian subgroup         C1      NOp   1
 Largest concise Abelian subgroup C1      NOp   1
                         Standard orientation:                         
 ---------------------------------------------------------------------
 Center     Atomic      Atomic             Coordinates (Angstroms)
 Number     Number       Type             X           Y           Z
 ---------------------------------------------------------------------
      1          6           0       -1.730001    0.404638    0.391925
      2          6           0       -1.911343   -0.707710   -0.266787
      3          1           0       -2.844883   -1.262838   -0.204530
      4          1           0       -2.353675    0.976062    1.065651
      5          1           0       -1.132464   -1.111670   -0.907093
      6          6           0        1.621979   -0.745371    0.465813
      7          1           0        0.829757   -1.009066    1.170658
      8          1           0        2.044896   -1.645862    0.024119
      9          1           0        2.397325   -0.172356    0.973309
     10          8           0        1.090532   -0.003263   -0.614482
     11          8           0        0.610734    1.197025   -0.113047
     12          1           0       -0.434895    0.966287    0.152410
 ---------------------------------------------------------------------
 Rotational constants (GHZ):           8.1871372           2.8379176           2.4269893
 Standard basis: CC-pVTZ (5D, 7F)
 There are   280 symmetry adapted cartesian basis functions of A   symmetry.
 There are   248 symmetry adapted basis functions of A   symmetry.
   248 basis functions,   379 primitive gaussians,   280 cartesian basis functions
    21 alpha electrons       20 beta electrons
       nuclear repulsion energy       176.0752416451 Hartrees.
 NAtoms=   12 NActive=   12 NUniq=   12 SFac= 1.00D+00 NAtFMM=   60 NAOKFM=F Big=F
 Integral buffers will be    131072 words long.
 Raffenetti 2 integral format.
 Two-electron integral symmetry is turned on.
 Nuclear repulsion after empirical dispersion term =      176.0699306872 Hartrees.
 One-electron integrals computed using PRISM.
 NBasis=   248 RedAO= T EigKep=  6.21D-04  NBF=   248
 NBsUse=   248 1.00D-06 EigRej= -1.00D+00 NBFU=   248
 ExpMin= 1.03D-01 ExpMax= 1.53D+04 ExpMxC= 5.22D+02 IAcc=3 IRadAn=         5 AccDes= 0.00D+00
 Harris functional with IExCor=  419 and IRadAn=       5 diagonalized for initial guess.
 HarFok:  IExCor=  419 AccDes= 0.00D+00 IRadAn=         5 IDoV= 1 UseB2=F ITyADJ=14
 ICtDFT=  3500011 ScaDFX=  1.000000  1.000000  1.000000  1.000000
 FoFCou: FMM=F IPFlag=           0 FMFlag=      100000 FMFlg1=           0
         NFxFlg=           0 DoJE=T BraDBF=F KetDBF=T FulRan=T
         wScrn=  0.000000 ICntrl=       500 IOpCl=  0 I1Cent=   200000004 NGrid=           0
         NMat0=    1 NMatS0=      1 NMatT0=    0 NMatD0=    1 NMtDS0=    0 NMtDT0=    0
 Petite list used in FoFCou.
 Initial guess <Sx>= 0.0000 <Sy>= 0.0000 <Sz>= 0.5000 <S**2>= 0.7500 S= 0.5000
 Keep R1 and R2 ints in memory in canonical form, NReq=997886056.
 Requested convergence on RMS density matrix=1.00D-08 within 128 cycles.
 Requested convergence on MAX density matrix=1.00D-06.
 Requested convergence on             energy=1.00D-06.
 No special actions if energy rises.
 Integral accuracy reduced to 1.0D-05 until final iterations.
 Initial convergence to 1.0D-05 achieved.  Increase integral accuracy.
 SCF Done:  E(UB2PLYPD3) =  -268.326186495     A.U. after   22 cycles
            NFock= 22  Conv=0.84D-08     -V/T= 2.0040
 <Sx>= 0.0000 <Sy>= 0.0000 <Sz>= 0.5000 <S**2>= 0.7795 S= 0.5146
 <L.S>=  0.00000000000    
 Annihilation of the first spin contaminant:
 S**2 before annihilation     0.7795,   after     0.7506
 DoSCS=T DFT=T ScalE2(SS,OS)=  0.270000  0.270000
 ExpMin= 1.03D-01 ExpMax= 1.53D+04 ExpMxC= 5.22D+02 IAcc=3 IRadAn=         5 AccDes= 0.00D+00
 HarFok:  IExCor=  205 AccDes= 0.00D+00 IRadAn=         5 IDoV=-2 UseB2=F ITyADJ=14
 ICtDFT= 12500011 ScaDFX=  1.000000  1.000000  1.000000  1.000000
 Range of M.O.s used for correlation:     6   248
 NBasis=   248 NAE=    21 NBE=    20 NFC=     5 NFV=     0
 NROrb=    243 NOA=    16 NOB=    15 NVA=   227 NVB=   228

 **** Warning!!: The largest alpha MO coefficient is  0.12024155D+02


 **** Warning!!: The largest beta MO coefficient is  0.12024019D+02

 DoSCS=T DFT=T ScalE2(SS,OS)=  0.270000  0.270000
 Disk-based method using ON**2 memory for 16 occupieds at a time.
 Permanent disk used for amplitudes=    32041050 words.
 Estimated scratch disk usage=   628194744 words.
 Actual    scratch disk usage=   607313336 words.
 JobTyp=2 Pass  1:  I=   6 to  21 NPSUse= 40 ParTrn=T ParDer=T DoDerP=T.
 (rs|ai) integrals will be sorted in core.
 Actual    scratch disk usage=   607313336 words.
 JobTyp=3 Pass  1:  I=   6 to  20 NPSUse= 40 ParTrn=T ParDer=T DoDerP=T.
 (rs|ai) integrals will be sorted in core.
 Spin components of T(2) and E(2):
     alpha-alpha T2 =       0.5408049422D-01 E2=     -0.4002752590D-01
     alpha-beta  T2 =       0.3363407372D+00 E2=     -0.2460088842D+00
     beta-beta   T2 =       0.5948995322D-01 E2=     -0.3907498776D-01
 (S**2,0)=  0.77947D+00           (S**2,1)=  0.75020D+00
 Scaling Projection term by:   0.270000
 E(PUHF)=      -0.26833261587D+03        E(PMP2)=      -0.26865218189D+03
 E2(B2PLYPD3) =    -0.3251113979D+00 E(B2PLYPD3) =    -0.26865129789238D+03
 G2DrvN: will do    13 centers at a time, making    1 passes.
 Calling FoFCou, ICntrl=  3107 FMM=F I1Cent=   0 AccDes= 0.00D+00.
 End of G2Drv F.D. properties file   721 does not exist.
 End of G2Drv F.D. properties file   722 does not exist.
 End of G2Drv F.D. properties file   788 does not exist.
          IDoAtm=111111111111
          Differentiating once with respect to electric field.
                with respect to dipole field.
          Differentiating once with respect to nuclear coordinates.
 Keep R1 and R2 ints in memory in canonical form, NReq=997758303.
          There are    39 degrees of freedom in the 1st order CPHF.  IDoFFX=6 NUNeed=    39.
     36 vectors produced by pass  0 Test12= 2.39D-14 2.56D-09 XBig12= 6.02D+01 4.46D+00.
 AX will form    36 AO Fock derivatives at one time.
     36 vectors produced by pass  1 Test12= 2.39D-14 2.56D-09 XBig12= 5.56D+00 2.96D-01.
     36 vectors produced by pass  2 Test12= 2.39D-14 2.56D-09 XBig12= 2.84D-01 1.01D-01.
     36 vectors produced by pass  3 Test12= 2.39D-14 2.56D-09 XBig12= 4.75D-03 8.13D-03.
     36 vectors produced by pass  4 Test12= 2.39D-14 2.56D-09 XBig12= 6.59D-05 8.85D-04.
     36 vectors produced by pass  5 Test12= 2.39D-14 2.56D-09 XBig12= 9.11D-07 1.08D-04.
     36 vectors produced by pass  6 Test12= 2.39D-14 2.56D-09 XBig12= 8.13D-09 8.29D-06.
     16 vectors produced by pass  7 Test12= 2.39D-14 2.56D-09 XBig12= 4.46D-11 5.58D-07.
      4 vectors produced by pass  8 Test12= 2.39D-14 2.56D-09 XBig12= 2.90D-13 5.78D-08.
      2 vectors produced by pass  9 Test12= 2.39D-14 2.56D-09 XBig12= 1.86D-15 5.29D-09.
 InvSVY:  IOpt=1 It=  1 EMax= 2.81D-15
 Solved reduced A of dimension   274 with    39 vectors.
 End of Minotr F.D. properties file   721 does not exist.
 End of Minotr F.D. properties file   722 does not exist.
 End of Minotr F.D. properties file   788 does not exist.
 MDV= 10737418240.
 DoSCS=T DFT=T ScalE2(SS,OS)=  0.270000  0.270000
 Form MO integral derivatives with frozen-active canonical formalism.
 Discarding MO integrals.
 Reordered first order wavefunction length =    129311421
 In DefCFB: NBatch=  1 ICI= 21 ICA=228 LFMax= 76
            Large arrays: LIAPS=  2590667520 LIARS=   656913600 words.
 In DefCFB: NBatch=  1 ICI= 21 ICA=228 LFMax= 76
            Large arrays: LIAPS=  2590667520 LIARS=   656913600 words.
 Semi-Direct transformation.
 ModeAB=           4 MOrb=            21 LenV=   10735499253
 LASXX=    151412541 LTotXX=   151412541 LenRXX=   305730789
 LTotAB=   154318248 MaxLAS=   198622704 LenRXY=           0
 NonZer=   457143330 LenScr=   688404480 LnRSAI=   198622704
 LnScr1=   299103232 LExtra=           0 Total=   1491861205
 MaxDsk=          -1 SrtSym=           T ITran=            4
 JobTyp=1 Pass  1:  I=   1 to  21.
 (rs|ai) integrals will be sorted in core.
 ModeAB=           4 MOrb=            20 LenV=   10735499253
 LASXX=    144598645 LTotXX=   144598645 LenRXX=   268036705
 LTotAB=   123438060 MaxLAS=   189164480 LenRXY=           0
 NonZer=   412635350 LenScr=   621380608 LnRSAI=   189164480
 LnScr1=   284860416 LExtra=           0 Total=   1363442209
 MaxDsk=          -1 SrtSym=           T ITran=            4
 JobTyp=2 Pass  1:  I=   1 to  20.
 (rs|ai) integrals will be sorted in core.
 SymMOI:  orbitals are not symmetric.
 DoSCS=T DFT=T ScalE2(SS,OS)=  0.270000  0.270000
 Spin components of T(2) and E(2):
     alpha-alpha T2 =       0.5408049422D-01 E2=     -0.4002752590D-01
     alpha-beta  T2 =       0.3363407372D+00 E2=     -0.2460088842D+00
     beta-beta   T2 =       0.5948995322D-01 E2=     -0.3907498776D-01
 E2(B2PLYPD3) =    -0.3251113979D+00 E(B2PLYPD3) =    -0.26865129789238D+03
 (S**2,0)=  0.77947D+00           (S**2,1)=  0.75020D+00
 Scaling Projection term by:   0.270000
 E(PUHF)=      -0.26833261587D+03        E(PMP2)=      -0.26865218189D+03
          IDoAtm=111111111111
          Differentiating once with respect to electric field.
                with respect to dipole field.
          Differentiating once with respect to nuclear coordinates.
 Keep R1 and R2 ints in memory in canonical form, NReq=997895152.
          There are     1 degrees of freedom in the 1st order CPHF.  IDoFFX=0 NUNeed=     1.
 LinEq1:  Iter=  0 NonCon=     1 RMS=1.18D-03 Max=6.88D-02 NDo=     1
 AX will form     1 AO Fock derivatives at one time.
 LinEq1:  Iter=  1 NonCon=     1 RMS=4.15D-04 Max=1.53D-02 NDo=     1
 LinEq1:  Iter=  2 NonCon=     1 RMS=2.64D-04 Max=1.16D-02 NDo=     1
 LinEq1:  Iter=  3 NonCon=     1 RMS=1.43D-04 Max=7.17D-03 NDo=     1
 LinEq1:  Iter=  4 NonCon=     1 RMS=9.62D-05 Max=4.38D-03 NDo=     1
 LinEq1:  Iter=  5 NonCon=     1 RMS=4.01D-05 Max=8.96D-04 NDo=     1
 LinEq1:  Iter=  6 NonCon=     1 RMS=2.96D-05 Max=8.94D-04 NDo=     1
 LinEq1:  Iter=  7 NonCon=     1 RMS=1.15D-05 Max=3.18D-04 NDo=     1
 LinEq1:  Iter=  8 NonCon=     1 RMS=7.75D-06 Max=2.09D-04 NDo=     1
 LinEq1:  Iter=  9 NonCon=     1 RMS=3.05D-06 Max=6.42D-05 NDo=     1
 LinEq1:  Iter= 10 NonCon=     1 RMS=8.16D-07 Max=1.49D-05 NDo=     1
 LinEq1:  Iter= 11 NonCon=     1 RMS=2.97D-07 Max=4.42D-06 NDo=     1
 LinEq1:  Iter= 12 NonCon=     1 RMS=1.42D-07 Max=2.64D-06 NDo=     1
 LinEq1:  Iter= 13 NonCon=     1 RMS=5.51D-08 Max=9.07D-07 NDo=     1
 LinEq1:  Iter= 14 NonCon=     1 RMS=1.71D-08 Max=3.39D-07 NDo=     1
 LinEq1:  Iter= 15 NonCon=     1 RMS=3.75D-09 Max=9.86D-08 NDo=     1
 LinEq1:  Iter= 16 NonCon=     1 RMS=9.00D-10 Max=1.32D-08 NDo=     1
 LinEq1:  Iter= 17 NonCon=     1 RMS=2.72D-10 Max=6.59D-09 NDo=     1
 LinEq1:  Iter= 18 NonCon=     1 RMS=7.14D-11 Max=2.47D-09 NDo=     1
 LinEq1:  Iter= 19 NonCon=     0 RMS=2.18D-11 Max=8.59D-10 NDo=     1
 Linear equations converged to 1.000D-10 1.000D-09 after    19 iterations.
 End of Minotr F.D. properties file   721 does not exist.
 End of Minotr F.D. properties file   722 does not exist.
 End of Minotr F.D. properties file   788 does not exist.
 Symmetrizing basis deriv contribution to polar:
 IMax=3 JMax=2 DiffMx= 0.00D+00
 G2DrvN: will do    13 centers at a time, making    1 passes.
 Calling FoFCou, ICntrl=  3107 FMM=F I1Cent=   0 AccDes= 0.00D+00.
 End of G2Drv F.D. properties file   721 does not exist.
 End of G2Drv F.D. properties file   722 does not exist.
 End of G2Drv F.D. properties file   788 does not exist.
 DoSCS=T DFT=T ScalE2(SS,OS)=  0.270000  0.270000
 R2 and R3 integrals will be kept in memory, NReq=  1558768820.
 DD1Dir will call FoFMem   1 times, MxPair=      1240
 NAB=   420 NAA=   210 NBB=   190.
 Discarding MO integrals.

 **********************************************************************

            Population analysis using the SCF Density.

 **********************************************************************

 Orbital symmetries:
 Alpha Orbitals:
       Occupied  (A) (A) (A) (A) (A) (A) (A) (A) (A) (A) (A) (A)
                 (A) (A) (A) (A) (A) (A) (A) (A) (A)
       Virtual   (A) (A) (A) (A) (A) (A) (A) (A) (A) (A) (A) (A)
                 (A) (A) (A) (A) (A) (A) (A) (A) (A) (A) (A) (A)
                 (A) (A) (A) (A) (A) (A) (A) (A) (A) (A) (A) (A)
                 (A) (A) (A) (A) (A) (A) (A) (A) (A) (A) (A) (A)
                 (A) (A) (A) (A) (A) (A) (A) (A) (A) (A) (A) (A)
                 (A) (A) (A) (A) (A) (A) (A) (A) (A) (A) (A) (A)
                 (A) (A) (A) (A) (A) (A) (A) (A) (A) (A) (A) (A)
                 (A) (A) (A) (A) (A) (A) (A) (A) (A) (A) (A) (A)
                 (A) (A) (A) (A) (A) (A) (A) (A) (A) (A) (A) (A)
                 (A) (A) (A) (A) (A) (A) (A) (A) (A) (A) (A) (A)
                 (A) (A) (A) (A) (A) (A) (A) (A) (A) (A) (A) (A)
                 (A) (A) (A) (A) (A) (A) (A) (A) (A) (A) (A) (A)
                 (A) (A) (A) (A) (A) (A) (A) (A) (A) (A) (A) (A)
                 (A) (A) (A) (A) (A) (A) (A) (A) (A) (A) (A) (A)
                 (A) (A) (A) (A) (A) (A) (A) (A) (A) (A) (A) (A)
                 (A) (A) (A) (A) (A) (A) (A) (A) (A) (A) (A) (A)
                 (A) (A) (A) (A) (A) (A) (A) (A) (A) (A) (A) (A)
                 (A) (A) (A) (A) (A) (A) (A) (A) (A) (A) (A) (A)
                 (A) (A) (A) (A) (A) (A) (A) (A) (A) (A) (A)
 Beta  Orbitals:
       Occupied  (A) (A) (A) (A) (A) (A) (A) (A) (A) (A) (A) (A)
                 (A) (A) (A) (A) (A) (A) (A) (A)
       Virtual   (A) (A) (A) (A) (A) (A) (A) (A) (A) (A) (A) (A)
                 (A) (A) (A) (A) (A) (A) (A) (A) (A) (A) (A) (A)
                 (A) (A) (A) (A) (A) (A) (A) (A) (A) (A) (A) (A)
                 (A) (A) (A) (A) (A) (A) (A) (A) (A) (A) (A) (A)
                 (A) (A) (A) (A) (A) (A) (A) (A) (A) (A) (A) (A)
                 (A) (A) (A) (A) (A) (A) (A) (A) (A) (A) (A) (A)
                 (A) (A) (A) (A) (A) (A) (A) (A) (A) (A) (A) (A)
                 (A) (A) (A) (A) (A) (A) (A) (A) (A) (A) (A) (A)
                 (A) (A) (A) (A) (A) (A) (A) (A) (A) (A) (A) (A)
                 (A) (A) (A) (A) (A) (A) (A) (A) (A) (A) (A) (A)
                 (A) (A) (A) (A) (A) (A) (A) (A) (A) (A) (A) (A)
                 (A) (A) (A) (A) (A) (A) (A) (A) (A) (A) (A) (A)
                 (A) (A) (A) (A) (A) (A) (A) (A) (A) (A) (A) (A)
                 (A) (A) (A) (A) (A) (A) (A) (A) (A) (A) (A) (A)
                 (A) (A) (A) (A) (A) (A) (A) (A) (A) (A) (A) (A)
                 (A) (A) (A) (A) (A) (A) (A) (A) (A) (A) (A) (A)
                 (A) (A) (A) (A) (A) (A) (A) (A) (A) (A) (A) (A)
                 (A) (A) (A) (A) (A) (A) (A) (A) (A) (A) (A) (A)
                 (A) (A) (A) (A) (A) (A) (A) (A) (A) (A) (A) (A)
 The electronic state is 2-A.
 Alpha  occ. eigenvalues --  -19.78982 -19.78652 -10.66069 -10.65401 -10.63097
 Alpha  occ. eigenvalues --   -1.29219  -1.02672  -0.90469  -0.78041  -0.68695
 Alpha  occ. eigenvalues --   -0.62786  -0.56641  -0.55333  -0.54516  -0.51176
 Alpha  occ. eigenvalues --   -0.49094  -0.44434  -0.38069  -0.37125  -0.34614
 Alpha  occ. eigenvalues --   -0.30941
 Alpha virt. eigenvalues --    0.04762   0.09008   0.10251   0.11442   0.14153
 Alpha virt. eigenvalues --    0.14805   0.16459   0.17176   0.19880   0.25953
 Alpha virt. eigenvalues --    0.28366   0.30099   0.31535   0.35156   0.35406
 Alpha virt. eigenvalues --    0.37621   0.42225   0.44128   0.45686   0.46392
 Alpha virt. eigenvalues --    0.47918   0.50577   0.50883   0.51781   0.53368
 Alpha virt. eigenvalues --    0.53985   0.54579   0.57537   0.59356   0.61891
 Alpha virt. eigenvalues --    0.67082   0.67875   0.69503   0.70741   0.73201
 Alpha virt. eigenvalues --    0.74549   0.77088   0.79841   0.80383   0.87670
 Alpha virt. eigenvalues --    0.89132   0.93617   0.96827   0.98426   0.99715
 Alpha virt. eigenvalues --    1.02725   1.03595   1.05742   1.08937   1.10472
 Alpha virt. eigenvalues --    1.11656   1.13203   1.14386   1.17828   1.20318
 Alpha virt. eigenvalues --    1.21182   1.24600   1.27246   1.30800   1.32964
 Alpha virt. eigenvalues --    1.35364   1.38041   1.38878   1.40059   1.42393
 Alpha virt. eigenvalues --    1.45514   1.49032   1.50150   1.51787   1.59773
 Alpha virt. eigenvalues --    1.63325   1.65073   1.74121   1.77168   1.80020
 Alpha virt. eigenvalues --    1.90840   1.93392   2.02104   2.03635   2.12106
 Alpha virt. eigenvalues --    2.16345   2.17738   2.21621   2.25657   2.29599
 Alpha virt. eigenvalues --    2.33437   2.36521   2.38257   2.40943   2.43543
 Alpha virt. eigenvalues --    2.50187   2.52933   2.54508   2.57311   2.62853
 Alpha virt. eigenvalues --    2.69476   2.72247   2.79493   2.82986   2.86370
 Alpha virt. eigenvalues --    2.88254   2.90988   2.91448   2.92348   2.93699
 Alpha virt. eigenvalues --    2.96979   2.97898   2.99251   3.00152   3.02866
 Alpha virt. eigenvalues --    3.04869   3.07299   3.12348   3.13074   3.14678
 Alpha virt. eigenvalues --    3.17786   3.18999   3.20510   3.22221   3.24020
 Alpha virt. eigenvalues --    3.26088   3.29120   3.31967   3.34781   3.35564
 Alpha virt. eigenvalues --    3.41642   3.42955   3.44155   3.45007   3.50490
 Alpha virt. eigenvalues --    3.53511   3.55982   3.58778   3.59408   3.62405
 Alpha virt. eigenvalues --    3.65300   3.66808   3.68027   3.72433   3.76326
 Alpha virt. eigenvalues --    3.78559   3.82266   3.87747   3.89413   3.90622
 Alpha virt. eigenvalues --    3.93207   3.96019   3.96926   3.98187   4.00948
 Alpha virt. eigenvalues --    4.02148   4.04188   4.08392   4.11018   4.13069
 Alpha virt. eigenvalues --    4.14880   4.16797   4.19374   4.19992   4.25060
 Alpha virt. eigenvalues --    4.27330   4.33821   4.35124   4.38718   4.42331
 Alpha virt. eigenvalues --    4.45308   4.49872   4.53697   4.59670   4.66937
 Alpha virt. eigenvalues --    4.68884   4.72188   4.79055   4.81222   4.84773
 Alpha virt. eigenvalues --    4.90521   4.91318   4.94832   4.99691   5.00871
 Alpha virt. eigenvalues --    5.02679   5.03935   5.05811   5.06773   5.17773
 Alpha virt. eigenvalues --    5.25683   5.27900   5.30852   5.32302   5.34056
 Alpha virt. eigenvalues --    5.35378   5.37915   5.39460   5.40184   5.41534
 Alpha virt. eigenvalues --    5.48513   5.70083   5.74147   5.82295   5.92721
 Alpha virt. eigenvalues --    5.95301   5.98825   6.08432   6.09639   6.14952
 Alpha virt. eigenvalues --    6.27951   6.33979   6.36774   6.42479   6.60986
 Alpha virt. eigenvalues --    6.69028   6.76781   6.79669   6.86679   6.98248
 Alpha virt. eigenvalues --    7.06473   7.07406   7.19890   7.42000   7.44810
 Alpha virt. eigenvalues --    7.63138   7.80656  10.02895  10.58114  11.07143
 Alpha virt. eigenvalues --   13.47657  14.33024
  Beta  occ. eigenvalues --  -19.78814 -19.77298 -10.66077 -10.63835 -10.63336
  Beta  occ. eigenvalues --   -1.27544  -1.00240  -0.88418  -0.77629  -0.65853
  Beta  occ. eigenvalues --   -0.59566  -0.55643  -0.55001  -0.53093  -0.49534
  Beta  occ. eigenvalues --   -0.46095  -0.43820  -0.36166  -0.34147  -0.33793
  Beta virt. eigenvalues --   -0.05596   0.05656   0.09080   0.10592   0.11718
  Beta virt. eigenvalues --    0.14593   0.15001   0.16547   0.17460   0.20550
  Beta virt. eigenvalues --    0.26506   0.28787   0.30771   0.31677   0.35626
  Beta virt. eigenvalues --    0.36105   0.38340   0.42765   0.44626   0.46598
  Beta virt. eigenvalues --    0.46959   0.48839   0.50877   0.51207   0.52235
  Beta virt. eigenvalues --    0.53636   0.54254   0.55688   0.59460   0.60648
  Beta virt. eigenvalues --    0.62060   0.68180   0.68217   0.70278   0.71209
  Beta virt. eigenvalues --    0.73587   0.75144   0.77455   0.80392   0.80949
  Beta virt. eigenvalues --    0.87956   0.89653   0.94103   0.97033   0.99010
  Beta virt. eigenvalues --    1.00193   1.02916   1.04064   1.05910   1.09149
  Beta virt. eigenvalues --    1.10858   1.12306   1.13548   1.14613   1.18180
  Beta virt. eigenvalues --    1.20550   1.22177   1.25108   1.27626   1.31148
  Beta virt. eigenvalues --    1.33593   1.35731   1.38202   1.39184   1.40200
  Beta virt. eigenvalues --    1.43022   1.46187   1.49665   1.51071   1.52409
  Beta virt. eigenvalues --    1.59983   1.63464   1.65290   1.75622   1.77984
  Beta virt. eigenvalues --    1.80316   1.92128   1.95253   2.02598   2.04443
  Beta virt. eigenvalues --    2.12471   2.17540   2.19008   2.21787   2.26643
  Beta virt. eigenvalues --    2.30338   2.33918   2.36959   2.38531   2.41839
  Beta virt. eigenvalues --    2.44240   2.50354   2.53513   2.55886   2.57960
  Beta virt. eigenvalues --    2.62977   2.70218   2.72932   2.80650   2.83196
  Beta virt. eigenvalues --    2.87285   2.89247   2.91298   2.91742   2.92707
  Beta virt. eigenvalues --    2.94309   2.97543   2.98494   3.00280   3.01133
  Beta virt. eigenvalues --    3.03451   3.04953   3.08119   3.12486   3.13258
  Beta virt. eigenvalues --    3.15118   3.18062   3.20137   3.20883   3.22698
  Beta virt. eigenvalues --    3.24834   3.27628   3.29938   3.33509   3.36328
  Beta virt. eigenvalues --    3.37151   3.41738   3.43442   3.44497   3.45550
  Beta virt. eigenvalues --    3.50537   3.53591   3.56098   3.58881   3.59624
  Beta virt. eigenvalues --    3.63103   3.65453   3.67231   3.68870   3.73095
  Beta virt. eigenvalues --    3.76794   3.78739   3.83057   3.87832   3.89617
  Beta virt. eigenvalues --    3.90455   3.93574   3.96373   3.97404   3.98763
  Beta virt. eigenvalues --    4.01581   4.02348   4.04904   4.08585   4.11469
  Beta virt. eigenvalues --    4.13171   4.15056   4.16985   4.19587   4.20237
  Beta virt. eigenvalues --    4.25458   4.27666   4.34276   4.36009   4.39475
  Beta virt. eigenvalues --    4.42764   4.45939   4.50183   4.54726   4.60737
  Beta virt. eigenvalues --    4.67484   4.69290   4.72903   4.79670   4.81452
  Beta virt. eigenvalues --    4.85307   4.91140   4.92132   4.94962   4.99985
  Beta virt. eigenvalues --    5.01282   5.02951   5.04133   5.06375   5.07073
  Beta virt. eigenvalues --    5.18675   5.26817   5.28482   5.31205   5.32626
  Beta virt. eigenvalues --    5.34577   5.35682   5.38226   5.40004   5.40819
  Beta virt. eigenvalues --    5.41954   5.48795   5.70710   5.75875   5.82963
  Beta virt. eigenvalues --    5.92890   5.95882   5.99125   6.09318   6.10242
  Beta virt. eigenvalues --    6.15908   6.28680   6.34712   6.38631   6.43141
  Beta virt. eigenvalues --    6.62212   6.69973   6.79284   6.80967   6.87707
  Beta virt. eigenvalues --    6.99756   7.07023   7.08754   7.21667   7.43589
  Beta virt. eigenvalues --    7.45413   7.64519   7.81479  10.03530  10.58958
  Beta virt. eigenvalues --   11.08036  13.47658  14.33408
          Condensed to atoms (all electrons):
               1          2          3          4          5          6
     1  C    5.194895   0.626666  -0.048121   0.394968  -0.051202  -0.005412
     2  C    0.626666   4.887194   0.402962  -0.043816   0.403182  -0.002143
     3  H   -0.048121   0.402962   0.543011  -0.005997  -0.032717  -0.000089
     4  H    0.394968  -0.043816  -0.005997   0.496524   0.004664   0.000124
     5  H   -0.051202   0.403182  -0.032717   0.004664   0.504969  -0.002490
     6  C   -0.005412  -0.002143  -0.000089   0.000124  -0.002490   4.620594
     7  H    0.004946  -0.000308  -0.000082  -0.000311  -0.002499   0.396690
     8  H    0.000368  -0.000111  -0.000011  -0.000010  -0.000272   0.394629
     9  H   -0.000535   0.000343   0.000010   0.000002   0.000708   0.413987
    10  O   -0.003139  -0.001500   0.000333   0.000203   0.015963   0.297013
    11  O   -0.072713  -0.000715  -0.000252   0.001136  -0.001360  -0.044690
    12  H    0.177219  -0.007068   0.001757  -0.007672  -0.003038   0.003562
               7          8          9         10         11         12
     1  C    0.004946   0.000368  -0.000535  -0.003139  -0.072713   0.177219
     2  C   -0.000308  -0.000111   0.000343  -0.001500  -0.000715  -0.007068
     3  H   -0.000082  -0.000011   0.000010   0.000333  -0.000252   0.001757
     4  H   -0.000311  -0.000010   0.000002   0.000203   0.001136  -0.007672
     5  H   -0.002499  -0.000272   0.000708   0.015963  -0.001360  -0.003038
     6  C    0.396690   0.394629   0.413987   0.297013  -0.044690   0.003562
     7  H    0.667693  -0.036512  -0.054681  -0.051935  -0.003704   0.005493
     8  H   -0.036512   0.593064  -0.025559  -0.026954   0.007025  -0.000886
     9  H   -0.054681  -0.025559   0.597741  -0.036423   0.005014  -0.000137
    10  O   -0.051935  -0.026954  -0.036423   7.956467   0.065020  -0.031587
    11  O   -0.003704   0.007025   0.005014   0.065020   8.015265   0.246043
    12  H    0.005493  -0.000886  -0.000137  -0.031587   0.246043   0.395822
          Atomic-Atomic Spin Densities.
               1          2          3          4          5          6
     1  C    0.835907  -0.024135  -0.017064   0.002214  -0.006310   0.000441
     2  C   -0.024135  -0.164822   0.009886   0.000109   0.011157  -0.000100
     3  H   -0.017064   0.009886   0.082036  -0.004963  -0.010082   0.000062
     4  H    0.002214   0.000109  -0.004963   0.023012   0.001126  -0.000032
     5  H   -0.006310   0.011157  -0.010082   0.001126   0.033104  -0.000376
     6  C    0.000441  -0.000100   0.000062  -0.000032  -0.000376  -0.005346
     7  H   -0.004889   0.000462  -0.000346   0.000438   0.001429   0.004792
     8  H    0.000158  -0.000045   0.000014  -0.000005  -0.000131   0.000342
     9  H    0.001226  -0.000147   0.000023  -0.000060  -0.000217  -0.002291
    10  O    0.014138  -0.002045   0.000448  -0.000480  -0.004982  -0.000453
    11  O   -0.083913   0.005450  -0.000735   0.003529   0.002951  -0.001413
    12  H    0.041113   0.000162   0.000574  -0.000213   0.000060   0.001088
               7          8          9         10         11         12
     1  C   -0.004889   0.000158   0.001226   0.014138  -0.083913   0.041113
     2  C    0.000462  -0.000045  -0.000147  -0.002045   0.005450   0.000162
     3  H   -0.000346   0.000014   0.000023   0.000448  -0.000735   0.000574
     4  H    0.000438  -0.000005  -0.000060  -0.000480   0.003529  -0.000213
     5  H    0.001429  -0.000131  -0.000217  -0.004982   0.002951   0.000060
     6  C    0.004792   0.000342  -0.002291  -0.000453  -0.001413   0.001088
     7  H    0.000089  -0.000758  -0.000658  -0.000674   0.003452  -0.003287
     8  H   -0.000758  -0.001114   0.000925   0.000142  -0.000202   0.000092
     9  H   -0.000658   0.000925   0.003088  -0.000504  -0.000399   0.001252
    10  O   -0.000674   0.000142  -0.000504   0.057446  -0.039124   0.008620
    11  O    0.003452  -0.000202  -0.000399  -0.039124   0.478335  -0.026266
    12  H   -0.003287   0.000092   0.001252   0.008620  -0.026266  -0.102888
 Mulliken charges and spin densities:
               1          2
     1  C   -0.217941   0.758886
     2  C   -0.264687  -0.164069
     3  H    0.139197   0.059852
     4  H    0.160183   0.024675
     5  H    0.164092   0.027730
     6  C   -0.071773  -0.003285
     7  H    0.075210   0.000048
     8  H    0.095228  -0.000581
     9  H    0.099531   0.002237
    10  O   -0.183462   0.032532
    11  O   -0.216070   0.341667
    12  H    0.220491  -0.079692
 Sum of Mulliken charges =  -0.00000   1.00000
 Mulliken charges and spin densities with hydrogens summed into heavy atoms:
               1          2
     1  C   -0.057758   0.783561
     2  C    0.038603  -0.076486
     6  C    0.198195  -0.001582
    10  O   -0.183462   0.032532
    11  O    0.004421   0.261975
 APT charges:
               1
     1  C    0.265400
     2  C   -0.232398
     3  H    0.068302
     4  H    0.024848
     5  H    0.092940
     6  C    0.423754
     7  H   -0.034199
     8  H   -0.003296
     9  H   -0.029119
    10  O   -0.378634
    11  O    0.097308
    12  H   -0.294906
 Sum of APT charges =  -0.00000
 APT charges with hydrogens summed into heavy atoms:
               1
     1  C    0.290248
     2  C   -0.071157
     6  C    0.357141
    10  O   -0.378634
    11  O   -0.197598
 Electronic spatial extent (au):  <R**2>=            535.9897
 Charge=             -0.0000 electrons
 Dipole moment (field-independent basis, Debye):
    X=             -1.2208    Y=             -1.7936    Z=              1.4872  Tot=              2.6304
 Quadrupole moment (field-independent basis, Debye-Ang):
   XX=            -26.8921   YY=            -31.1438   ZZ=            -32.4445
   XY=             -2.2268   XZ=              0.4310   YZ=              1.8124
 Traceless Quadrupole moment (field-independent basis, Debye-Ang):
   XX=              3.2680   YY=             -0.9837   ZZ=             -2.2843
   XY=             -2.2268   XZ=              0.4310   YZ=              1.8124
 Octapole moment (field-independent basis, Debye-Ang**2):
  XXX=              4.6486  YYY=              0.3806  ZZZ=             -1.6996  XYY=              0.3840
  XXY=             -3.2913  XXZ=              5.2221  XZZ=              2.2994  YZZ=              1.4977
  YYZ=             -0.7552  XYZ=             -3.1842
 Hexadecapole moment (field-independent basis, Debye-Ang**3):
 XXXX=           -447.0448 YYYY=           -152.4163 ZZZZ=            -77.8772 XXXY=              6.2738
 XXXZ=             -8.8331 YYYX=             -3.2561 YYYZ=              4.0018 ZZZX=             -3.4370
 ZZZY=              1.4138 XXYY=            -95.1839 XXZZ=            -93.2976 YYZZ=            -37.3709
 XXYZ=              7.7431 YYXZ=             -2.7704 ZZXY=             -1.7875
 N-N= 1.760699306872D+02 E-N=-9.815371882731D+02  KE= 2.672464450259D+02
  Exact polarizability:  78.344   2.290  51.266  -2.538   5.847  39.133
 Approx polarizability:  63.589   2.025  61.835  -4.241   8.955  47.334
                          Isotropic Fermi Contact Couplings
        Atom                 a.u.       MegaHertz       Gauss      10(-4) cm-1
     1  C(13)              0.18568     208.73544      74.48200      69.62665
     2  C(13)              0.00302       3.38990       1.20960       1.13075
     3  H(1)               0.02817     125.90571      44.92629      41.99763
     4  H(1)               0.01349      60.30135      21.51702      20.11437
     5  H(1)               0.01594      71.22876      25.41619      23.75936
     6  C(13)             -0.00356      -3.99715      -1.42628      -1.33331
     7  H(1)               0.00257      11.48872       4.09946       3.83222
     8  H(1)              -0.00005      -0.22808      -0.08139      -0.07608
     9  H(1)               0.00075       3.33243       1.18909       1.11158
    10  O(17)              0.01613      -9.77643      -3.48847      -3.26106
    11  O(17)              0.02036     -12.34434      -4.40477      -4.11763
    12  H(1)              -0.02688    -120.15616     -42.87471     -40.07978
 --------------------------------------------------------
       Center         ----  Spin Dipole Couplings  ----
                      3XX-RR        3YY-RR        3ZZ-RR
 --------------------------------------------------------
     1   Atom        0.517296     -0.179317     -0.337979
     2   Atom        0.001073      0.027709     -0.028782
     3   Atom        0.003301      0.002340     -0.005641
     4   Atom        0.000590      0.004622     -0.005213
     5   Atom       -0.005902      0.006452     -0.000550
     6   Atom        0.001282      0.000819     -0.002100
     7   Atom        0.000132      0.001933     -0.002065
     8   Atom        0.000711      0.002746     -0.003457
     9   Atom        0.003383     -0.001903     -0.001480
    10   Atom        0.354604     -0.182867     -0.171737
    11   Atom        1.114286     -0.411694     -0.702592
    12   Atom        0.198436     -0.093515     -0.104920
 --------------------------------------------------------
                        XY            XZ            YZ
 --------------------------------------------------------
     1   Atom        0.407863     -0.132581     -0.080229
     2   Atom        0.034428     -0.005746      0.039684
     3   Atom        0.007643      0.000441      0.003030
     4   Atom       -0.011275     -0.027844      0.036863
     5   Atom       -0.002585     -0.003437      0.012893
     6   Atom       -0.006686      0.000407     -0.004354
     7   Atom       -0.004401      0.002196     -0.006033
     8   Atom       -0.004306      0.000534     -0.001069
     9   Atom       -0.004242      0.004340     -0.002473
    10   Atom        0.155219     -0.133968     -0.064699
    11   Atom        0.845215     -0.390302     -0.170484
    12   Atom        0.088090     -0.075936     -0.020054
 --------------------------------------------------------


 ---------------------------------------------------------------------------------
              Anisotropic Spin Dipole Couplings in Principal Axis System
 ---------------------------------------------------------------------------------

       Atom             a.u.   MegaHertz   Gauss  10(-4) cm-1        Axes

              Baa    -0.3813   -51.172   -18.259   -17.069 -0.2443  0.7415  0.6249
     1 C(13)  Bbb    -0.3463   -46.465   -16.580   -15.499  0.3663 -0.5261  0.7675
              Bcc     0.7276    97.637    34.839    32.568  0.8978  0.4164 -0.1431
 
              Baa    -0.0577    -7.747    -2.764    -2.584  0.3745 -0.5104  0.7741
     2 C(13)  Bbb    -0.0042    -0.561    -0.200    -0.187  0.8165 -0.2142 -0.5362
              Bcc     0.0619     8.308     2.965     2.771  0.4395  0.8328  0.3366
 
              Baa    -0.0074    -3.942    -1.407    -1.315  0.3297 -0.5071  0.7963
     3 H(1)   Bbb    -0.0034    -1.838    -0.656    -0.613  0.6235 -0.5164 -0.5870
              Bcc     0.0108     5.779     2.062     1.928  0.7089  0.6901  0.1459
 
              Baa    -0.0428   -22.839    -8.150    -7.618  0.3634 -0.5163  0.7755
     4 H(1)   Bbb    -0.0088    -4.689    -1.673    -1.564  0.7989  0.6009  0.0257
              Bcc     0.0516    27.528     9.823     9.182 -0.4793  0.6102  0.6309
 
              Baa    -0.0107    -5.725    -2.043    -1.910  0.2664 -0.5525  0.7897
     5 H(1)   Bbb    -0.0063    -3.377    -1.205    -1.127  0.9473  0.3013 -0.1088
              Bcc     0.0171     9.102     3.248     3.036 -0.1778  0.7771  0.6037
 
              Baa    -0.0074    -0.994    -0.355    -0.332  0.5036  0.6866  0.5244
     6 C(13)  Bbb    -0.0014    -0.187    -0.067    -0.062 -0.5784 -0.1830  0.7950
              Bcc     0.0088     1.181     0.422     0.394 -0.6418  0.7036 -0.3049
 
              Baa    -0.0066    -3.496    -1.247    -1.166  0.1618  0.6262  0.7627
     7 H(1)   Bbb    -0.0024    -1.289    -0.460    -0.430  0.8605  0.2888 -0.4197
              Bcc     0.0090     4.785     1.707     1.596 -0.4830  0.7242 -0.4921
 
              Baa    -0.0037    -1.952    -0.696    -0.651  0.1207  0.2419  0.9628
     8 H(1)   Bbb    -0.0026    -1.406    -0.502    -0.469  0.7804  0.5763 -0.2426
              Bcc     0.0063     3.358     1.198     1.120 -0.6135  0.7806 -0.1192
 
              Baa    -0.0043    -2.277    -0.813    -0.760  0.3941  0.9002  0.1850
     9 H(1)   Bbb    -0.0040    -2.146    -0.766    -0.716 -0.4901  0.0355  0.8710
              Bcc     0.0083     4.424     1.578     1.476  0.7775 -0.4339  0.4552
 
              Baa    -0.2442    17.672     6.306     5.895 -0.0827  0.8145  0.5742
    10 O(17)  Bbb    -0.1874    13.564     4.840     4.524  0.3421 -0.5180  0.7840
              Bcc     0.4317   -31.236   -11.146   -10.419  0.9360  0.2612 -0.2358
 
              Baa    -0.7885    57.058    20.360    19.033 -0.4394  0.8068 -0.3950
    11 O(17)  Bbb    -0.7812    56.530    20.171    18.856 -0.0090  0.4358  0.9000
              Bcc     1.5698  -113.588   -40.531   -37.889  0.8983  0.3990 -0.1842
 
              Baa    -0.1230   -65.611   -23.412   -21.885  0.2630 -0.1363  0.9551
    12 H(1)   Bbb    -0.1178   -62.866   -22.432   -20.970 -0.2190  0.9557  0.1967
              Bcc     0.2408   128.477    45.844    42.855  0.9396  0.2609 -0.2215
 

 ---------------------------------------------------------------------------------

 Calling FoFJK, ICntrl=  10100127 FMM=F ISym2X=0 I1Cent= 0 IOpClX= 1 NMat=1 NMatS=1 NMatT=0.
 ***** Axes restored to original set *****
 -------------------------------------------------------------------
 Center     Atomic                   Forces (Hartrees/Bohr)
 Number     Number              X              Y              Z
 -------------------------------------------------------------------
      1        6           0.001437641    0.005986970    0.002654152
      2        6          -0.001157711   -0.004361151   -0.002602543
      3        1           0.000744553    0.000116996   -0.000218739
      4        1           0.000337184   -0.000943180   -0.000745291
      5        1          -0.001152843    0.000384677    0.000739823
      6        6           0.001751105   -0.002202883    0.004677381
      7        1           0.001248392   -0.000141577   -0.000253561
      8        1          -0.000238385    0.000479306   -0.000037475
      9        1          -0.000283304   -0.000691345    0.000022452
     10        8           0.004334681   -0.009681720   -0.009559964
     11        8          -0.001349394    0.012569129    0.004031888
     12        1          -0.005671919   -0.001515222    0.001291876
 -------------------------------------------------------------------
 Cartesian Forces:  Max     0.012569129 RMS     0.003817676
 FormGI is forming the generalized inverse of G from B-inverse, IUseBI=4.

 GradGradGradGradGradGradGradGradGradGradGradGradGradGradGradGradGradGrad
 Berny optimization.
 Internal  Forces:  Max     0.014841144 RMS     0.003114135
 Search for a saddle point.
 Step number   1 out of a maximum of  100
 All quantities printed in internal units (Hartrees-Bohrs-Radians)
 Swapping is turned off.
 Second derivative matrix not updated -- analytic derivatives used.
 ITU=  0
     Eigenvalues ---   -0.05845   0.00498   0.00711   0.01358   0.01538
     Eigenvalues ---    0.02213   0.04218   0.04835   0.05075   0.05804
     Eigenvalues ---    0.08464   0.08533   0.08700   0.09912   0.11442
     Eigenvalues ---    0.13422   0.16803   0.18579   0.21305   0.23598
     Eigenvalues ---    0.30184   0.33007   0.33695   0.34411   0.34575
     Eigenvalues ---    0.35088   0.36107   0.36490   0.44264   0.67936
 Eigenvectors required to have negative eigenvalues:
                          R3        R11       A1        R10       A2
   1                   -0.79061   0.55330  -0.15098  -0.14122   0.09827
                          A14       A3        D10       A13       A15
   1                    0.06250   0.05271   0.04977   0.03532  -0.03235
 RFO step:  Lambda0=7.724787781D-05 Lambda=-1.07941435D-03.
 Linear search not attempted -- option 19 set.
 Iteration  1 RMS(Cart)=  0.05617635 RMS(Int)=  0.00044877
 Iteration  2 RMS(Cart)=  0.00103713 RMS(Int)=  0.00000841
 Iteration  3 RMS(Cart)=  0.00000081 RMS(Int)=  0.00000841
 Variable       Old X    -DE/DX   Delta X   Delta X   Delta X     New X
                                 (Linear)    (Quad)   (Total)
    R1        2.46687   0.00456   0.00000   0.00549   0.00549   2.47237
    R2        2.04353  -0.00116   0.00000  -0.00362  -0.00362   2.03991
    R3        2.70575  -0.00068   0.00000   0.02295   0.02295   2.72870
    R4        2.05584  -0.00071   0.00000  -0.00207  -0.00207   2.05377
    R5        2.05262  -0.00141   0.00000  -0.00425  -0.00425   2.04837
    R6        2.06487  -0.00106   0.00000  -0.00343  -0.00343   2.06144
    R7        2.05697  -0.00047   0.00000  -0.00066  -0.00066   2.05631
    R8        2.05890  -0.00055   0.00000  -0.00210  -0.00210   2.05680
    R9        2.67261   0.00562   0.00000   0.01291   0.01291   2.68552
   R10        2.62007   0.01484   0.00000   0.05074   0.05074   2.67082
   R11        2.08474   0.00553   0.00000  -0.00964  -0.00964   2.07510
    A1        2.32475  -0.00102   0.00000   0.00597   0.00597   2.33072
    A2        1.95572   0.00108   0.00000  -0.00303  -0.00303   1.95269
    A3        2.00271  -0.00006   0.00000  -0.00292  -0.00293   1.99978
    A4        2.12367   0.00031   0.00000  -0.00032  -0.00032   2.12335
    A5        2.11151   0.00007   0.00000   0.00098   0.00098   2.11248
    A6        2.04799  -0.00037   0.00000  -0.00065  -0.00065   2.04734
    A7        1.92176  -0.00029   0.00000  -0.00103  -0.00102   1.92074
    A8        1.92028  -0.00049   0.00000   0.00015   0.00012   1.92040
    A9        1.92507   0.00115   0.00000   0.00754   0.00753   1.93260
   A10        1.92582  -0.00024   0.00000  -0.00187  -0.00187   1.92394
   A11        1.84433  -0.00078   0.00000  -0.00905  -0.00905   1.83528
   A12        1.92542   0.00066   0.00000   0.00402   0.00401   1.92943
   A13        1.88393   0.00117   0.00000  -0.00903  -0.00903   1.87490
   A14        1.80694   0.00515   0.00000  -0.00389  -0.00389   1.80305
   A15        3.00640   0.00296   0.00000   0.02749   0.02749   3.03389
   A16        2.98938   0.00204   0.00000   0.03362   0.03362   3.02300
    D1        0.00283   0.00004   0.00000  -0.00068  -0.00068   0.00215
    D2        3.13667   0.00004   0.00000   0.00106   0.00106   3.13773
    D3       -3.13345  -0.00011   0.00000  -0.00606  -0.00606  -3.13952
    D4        0.00038  -0.00012   0.00000  -0.00432  -0.00432  -0.00394
    D5       -0.29221  -0.00060   0.00000   0.01536   0.01536  -0.27685
    D6        2.83311   0.00004   0.00000   0.01490   0.01490   2.84800
    D7        1.12823   0.00028   0.00000   0.00385   0.00388   1.13211
    D8       -3.07837   0.00008   0.00000   0.00136   0.00135  -3.07702
    D9       -0.99678  -0.00031   0.00000  -0.00401  -0.00403  -1.00081
   D10       -1.56058  -0.00176   0.00000  -0.04519  -0.04519  -1.60577
         Item               Value     Threshold  Converged?
 Maximum Force            0.014841     0.000450     NO 
 RMS     Force            0.003114     0.000300     NO 
 Maximum Displacement     0.139394     0.001800     NO 
 RMS     Displacement     0.056759     0.001200     NO 
 Predicted change in Energy=-5.047618D-04
 GradGradGradGradGradGradGradGradGradGradGradGradGradGradGradGradGradGrad

                          Input orientation:                          
 ---------------------------------------------------------------------
 Center     Atomic      Atomic             Coordinates (Angstroms)
 Number     Number       Type             X           Y           Z
 ---------------------------------------------------------------------
      1          6           0       -1.767626    0.411626    0.379867
      2          6           0       -1.964243   -0.702533   -0.277167
      3          1           0       -2.907990   -1.238631   -0.221522
      4          1           0       -2.381073    1.001430    1.044001
      5          1           0       -1.188712   -1.125019   -0.905662
      6          6           0        1.674254   -0.747681    0.473661
      7          1           0        0.903521   -1.036078    1.189756
      8          1           0        2.112492   -1.634336    0.019933
      9          1           0        2.443656   -0.159740    0.970637
     10          8           0        1.109130   -0.018064   -0.607018
     11          8           0        0.599447    1.190651   -0.080949
     12          1           0       -0.444895    0.944250    0.152410
 ---------------------------------------------------------------------
                    Distance matrix (angstroms):
                    1          2          3          4          5
     1  C    0.000000
     2  C    1.308320   0.000000
     3  H    2.094146   1.086810   0.000000
     4  H    1.079473   2.196070   2.626227   0.000000
     5  H    2.085426   1.083950   1.853880   3.121649   0.000000
     6  C    3.633088   3.715433   4.660608   4.453129   3.200233
     7  H    3.144327   3.238392   4.069441   3.867977   2.962452
     8  H    4.401230   4.192409   5.041837   5.309247   3.466133
     9  H    4.290731   4.613157   5.587966   4.963035   4.200757
    10  O    3.071531   3.165900   4.216117   3.993339   2.567999
    11  O    2.534219   3.192985   4.268874   3.191366   3.039735
    12  H    1.443968   2.281414   3.312346   2.132367   2.440216
                    6          7          8          9         10
     6  C    0.000000
     7  H    1.090869   0.000000
     8  H    1.088154   1.785500   0.000000
     9  H    1.088412   1.785497   1.785481   0.000000
    10  O    1.421117   2.075338   2.003032   2.071238   0.000000
    11  O    2.284717   2.581758   3.206249   2.516048   1.413335
    12  H    2.730682   2.610749   3.634128   3.198752   1.979337
                   11         12
    11  O    0.000000
    12  H    1.098098   0.000000
 Stoichiometry    C3H7O2(2)
 Framework group  C1[X(C3H7O2)]
 Deg. of freedom    30
 Full point group                 C1      NOp   1
 Largest Abelian subgroup         C1      NOp   1
 Largest concise Abelian subgroup C1      NOp   1
                         Standard orientation:                         
 ---------------------------------------------------------------------
 Center     Atomic      Atomic             Coordinates (Angstroms)
 Number     Number       Type             X           Y           Z
 ---------------------------------------------------------------------
      1          6           0       -1.764329    0.405357    0.383716
      2          6           0       -1.956672   -0.724515   -0.247230
      3          1           0       -2.894604   -1.268172   -0.170562
      4          1           0       -2.376839    1.003528    1.041198
      5          1           0       -1.183356   -1.153116   -0.874311
      6          6           0        1.689342   -0.719121    0.467608
      7          1           0        0.928551   -0.999272    1.197477
      8          1           0        2.131607   -1.611178    0.028615
      9          1           0        2.457912   -0.113366    0.944053
     10          8           0        1.106536   -0.018341   -0.622722
     11          8           0        0.590439    1.196571   -0.117599
     12          1           0       -0.449116    0.945414    0.131531
 ---------------------------------------------------------------------
 Rotational constants (GHZ):           8.2293001           2.7212048           2.3419341
 Standard basis: CC-pVTZ (5D, 7F)
 There are   280 symmetry adapted cartesian basis functions of A   symmetry.
 There are   248 symmetry adapted basis functions of A   symmetry.
   248 basis functions,   379 primitive gaussians,   280 cartesian basis functions
    21 alpha electrons       20 beta electrons
       nuclear repulsion energy       174.2873730930 Hartrees.
 NAtoms=   12 NActive=   12 NUniq=   12 SFac= 1.00D+00 NAtFMM=   60 NAOKFM=F Big=F
 Integral buffers will be    131072 words long.
 Raffenetti 2 integral format.
 Two-electron integral symmetry is turned on.
 Nuclear repulsion after empirical dispersion term =      174.2821630057 Hartrees.
 One-electron integrals computed using PRISM.
 NBasis=   248 RedAO= T EigKep=  6.35D-04  NBF=   248
 NBsUse=   248 1.00D-06 EigRej= -1.00D+00 NBFU=   248
 Initial guess from the checkpoint file:  "/localscratch/341085/Gau-13312.chk"
 B after Tr=     0.000000   -0.000000   -0.000000
         Rot=    0.999951    0.008298   -0.003050   -0.004422 Ang=   1.13 deg.
 Initial guess <Sx>= 0.0000 <Sy>= 0.0000 <Sz>= 0.5000 <S**2>= 0.7796 S= 0.5147
 ExpMin= 1.03D-01 ExpMax= 1.53D+04 ExpMxC= 5.22D+02 IAcc=3 IRadAn=         5 AccDes= 0.00D+00
 Harris functional with IExCor=  419 and IRadAn=       5 diagonalized for initial guess.
 HarFok:  IExCor=  419 AccDes= 0.00D+00 IRadAn=         5 IDoV= 1 UseB2=F ITyADJ=14
 ICtDFT=  3500011 ScaDFX=  1.000000  1.000000  1.000000  1.000000
 FoFCou: FMM=F IPFlag=           0 FMFlag=      100000 FMFlg1=           0
         NFxFlg=           0 DoJE=T BraDBF=F KetDBF=T FulRan=T
         wScrn=  0.000000 ICntrl=       500 IOpCl=  0 I1Cent=   200000004 NGrid=           0
         NMat0=    1 NMatS0=      1 NMatT0=    0 NMatD0=    1 NMtDS0=    0 NMtDT0=    0
 Petite list used in FoFCou.
 Keep R1 and R2 ints in memory in canonical form, NReq=997886056.
 Requested convergence on RMS density matrix=1.00D-08 within 128 cycles.
 Requested convergence on MAX density matrix=1.00D-06.
 Requested convergence on             energy=1.00D-06.
 No special actions if energy rises.
 Integral accuracy reduced to 1.0D-05 until final iterations.
 Initial convergence to 1.0D-05 achieved.  Increase integral accuracy.
 SCF Done:  E(UB2PLYPD3) =  -268.326354410     A.U. after   16 cycles
            NFock= 16  Conv=0.91D-08     -V/T= 2.0043
 <Sx>= 0.0000 <Sy>= 0.0000 <Sz>= 0.5000 <S**2>= 0.7803 S= 0.5150
 <L.S>=  0.00000000000    
 Annihilation of the first spin contaminant:
 S**2 before annihilation     0.7803,   after     0.7506
 DoSCS=T DFT=T ScalE2(SS,OS)=  0.270000  0.270000
 ExpMin= 1.03D-01 ExpMax= 1.53D+04 ExpMxC= 5.22D+02 IAcc=3 IRadAn=         5 AccDes= 0.00D+00
 HarFok:  IExCor=  205 AccDes= 0.00D+00 IRadAn=         5 IDoV=-2 UseB2=F ITyADJ=14
 ICtDFT= 12500011 ScaDFX=  1.000000  1.000000  1.000000  1.000000
 Range of M.O.s used for correlation:     6   248
 NBasis=   248 NAE=    21 NBE=    20 NFC=     5 NFV=     0
 NROrb=    243 NOA=    16 NOB=    15 NVA=   227 NVB=   228

 **** Warning!!: The largest alpha MO coefficient is  0.12023413D+02


 **** Warning!!: The largest beta MO coefficient is  0.12023319D+02

 DoSCS=T DFT=T ScalE2(SS,OS)=  0.270000  0.270000
 Fully direct method using O(ONN) memory.
 JobTyp=2 Pass  1:  I=   6 to  21 NPSUse= 40 ParTrn=T ParDer=T DoDerP=T.
 JobTyp=3 Pass  1:  I=   6 to  20 NPSUse= 40 ParTrn=T ParDer=T DoDerP=T.
 Spin components of T(2) and E(2):
     alpha-alpha T2 =       0.5462181190D-01 E2=     -0.4010333529D-01
     alpha-beta  T2 =       0.3392050923D+00 E2=     -0.2464958455D+00
     beta-beta   T2 =       0.5916392233D-01 E2=     -0.3887774519D-01
 (S**2,0)=  0.78027D+00           (S**2,1)=  0.75123D+00
 Scaling Projection term by:   0.270000
 E(PUHF)=      -0.26833267069D+03        E(PMP2)=      -0.26865272864D+03
 E2(B2PLYPD3) =    -0.3254769259D+00 E(B2PLYPD3) =    -0.26865183133551D+03
          IDoAtm=111111111111
          Differentiating once with respect to electric field.
                with respect to dipole field.
          Differentiating once with respect to nuclear coordinates.
 Keep R1 and R2 ints in memory in canonical form, NReq=997895152.
          There are     1 degrees of freedom in the 1st order CPHF.  IDoFFX=0 NUNeed=     1.
 LinEq1:  Iter=  0 NonCon=     1 RMS=1.18D-03 Max=6.71D-02 NDo=     1
 AX will form     1 AO Fock derivatives at one time.
 LinEq1:  Iter=  1 NonCon=     1 RMS=4.06D-04 Max=1.52D-02 NDo=     1
 LinEq1:  Iter=  2 NonCon=     1 RMS=2.58D-04 Max=1.15D-02 NDo=     1
 LinEq1:  Iter=  3 NonCon=     1 RMS=1.39D-04 Max=6.86D-03 NDo=     1
 LinEq1:  Iter=  4 NonCon=     1 RMS=9.50D-05 Max=4.08D-03 NDo=     1
 LinEq1:  Iter=  5 NonCon=     1 RMS=3.97D-05 Max=8.38D-04 NDo=     1
 LinEq1:  Iter=  6 NonCon=     1 RMS=2.94D-05 Max=8.34D-04 NDo=     1
 LinEq1:  Iter=  7 NonCon=     1 RMS=1.18D-05 Max=3.28D-04 NDo=     1
 LinEq1:  Iter=  8 NonCon=     1 RMS=7.85D-06 Max=2.06D-04 NDo=     1
 LinEq1:  Iter=  9 NonCon=     1 RMS=3.06D-06 Max=8.20D-05 NDo=     1
 LinEq1:  Iter= 10 NonCon=     1 RMS=8.49D-07 Max=1.33D-05 NDo=     1
 LinEq1:  Iter= 11 NonCon=     1 RMS=2.97D-07 Max=4.66D-06 NDo=     1
 LinEq1:  Iter= 12 NonCon=     1 RMS=1.45D-07 Max=2.26D-06 NDo=     1
 LinEq1:  Iter= 13 NonCon=     1 RMS=5.97D-08 Max=1.12D-06 NDo=     1
 LinEq1:  Iter= 14 NonCon=     1 RMS=1.81D-08 Max=3.45D-07 NDo=     1
 LinEq1:  Iter= 15 NonCon=     1 RMS=4.29D-09 Max=9.28D-08 NDo=     1
 LinEq1:  Iter= 16 NonCon=     1 RMS=1.32D-09 Max=2.29D-08 NDo=     1
 LinEq1:  Iter= 17 NonCon=     1 RMS=4.30D-10 Max=1.27D-08 NDo=     1
 LinEq1:  Iter= 18 NonCon=     1 RMS=1.22D-10 Max=4.60D-09 NDo=     1
 LinEq1:  Iter= 19 NonCon=     1 RMS=3.85D-11 Max=1.51D-09 NDo=     1
 LinEq1:  Iter= 20 NonCon=     0 RMS=1.23D-11 Max=3.19D-10 NDo=     1
 Linear equations converged to 1.000D-10 1.000D-09 after    20 iterations.
 End of Minotr F.D. properties file   721 does not exist.
 End of Minotr F.D. properties file   722 does not exist.
 End of Minotr F.D. properties file   788 does not exist.
 Calling FoFJK, ICntrl=  10002127 FMM=F ISym2X=0 I1Cent= 0 IOpClX= 1 NMat=1 NMatS=1 NMatT=0.
 ***** Axes restored to original set *****
 -------------------------------------------------------------------
 Center     Atomic                   Forces (Hartrees/Bohr)
 Number     Number              X              Y              Z
 -------------------------------------------------------------------
      1        6           0.000038459    0.000158692    0.000012769
      2        6          -0.000133869   -0.000042917   -0.000010986
      3        1           0.000005513   -0.000010719   -0.000009508
      4        1          -0.000036303   -0.000022319   -0.000005809
      5        1          -0.000026855   -0.000010372   -0.000010791
      6        6           0.000163495   -0.000084886    0.000125381
      7        1           0.000029553    0.000008306   -0.000031425
      8        1           0.000002140    0.000002047   -0.000007056
      9        1           0.000005299    0.000009579   -0.000010724
     10        8           0.000359105   -0.000868143   -0.000453369
     11        8          -0.000093034    0.001031361    0.000368741
     12        1          -0.000313503   -0.000170629    0.000032777
 -------------------------------------------------------------------
 Cartesian Forces:  Max     0.001031361 RMS     0.000264921

 GradGradGradGradGradGradGradGradGradGradGradGradGradGradGradGradGradGrad
 Berny optimization.
 FormGI is forming the generalized inverse of G from B-inverse, IUseBI=4.
 Internal  Forces:  Max     0.001143788 RMS     0.000254871
 Search for a saddle point.
 Step number   2 out of a maximum of  100
 All quantities printed in internal units (Hartrees-Bohrs-Radians)
 Swapping is turned off.
 Update second derivatives using D2CorX and points    1    2
 ITU=  0  0
     Eigenvalues ---   -0.05723   0.00575   0.00719   0.01377   0.01545
     Eigenvalues ---    0.02218   0.04217   0.04803   0.05059   0.05660
     Eigenvalues ---    0.08464   0.08495   0.08662   0.09906   0.11434
     Eigenvalues ---    0.13417   0.16803   0.18579   0.21272   0.23614
     Eigenvalues ---    0.29758   0.32959   0.33630   0.34412   0.34530
     Eigenvalues ---    0.35088   0.36108   0.36386   0.43368   0.67928
 Eigenvectors required to have negative eigenvalues:
                          R3        R11       A1        R10       A2
   1                   -0.79307   0.55128  -0.14888  -0.14334   0.09531
                          A14       A3        D10       A15       A13
   1                    0.05858   0.05357   0.04053  -0.03501   0.03401
 RFO step:  Lambda0=4.304240273D-08 Lambda=-1.21026051D-05.
 Linear search not attempted -- option 19 set.
 Iteration  1 RMS(Cart)=  0.01112876 RMS(Int)=  0.00001807
 Iteration  2 RMS(Cart)=  0.00003435 RMS(Int)=  0.00000023
 Iteration  3 RMS(Cart)=  0.00000000 RMS(Int)=  0.00000023
 Variable       Old X    -DE/DX   Delta X   Delta X   Delta X     New X
                                 (Linear)    (Quad)   (Total)
    R1        2.47237   0.00009   0.00000   0.00011   0.00011   2.47247
    R2        2.03991   0.00000   0.00000   0.00002   0.00002   2.03993
    R3        2.72870   0.00011   0.00000  -0.00003  -0.00003   2.72867
    R4        2.05377   0.00000   0.00000  -0.00001  -0.00001   2.05377
    R5        2.04837  -0.00001   0.00000  -0.00004  -0.00004   2.04833
    R6        2.06144  -0.00005   0.00000  -0.00009  -0.00009   2.06135
    R7        2.05631   0.00000   0.00000   0.00005   0.00005   2.05636
    R8        2.05680   0.00000   0.00000  -0.00001  -0.00001   2.05679
    R9        2.68552   0.00017   0.00000   0.00024   0.00024   2.68576
   R10        2.67082   0.00114   0.00000   0.00415   0.00415   2.67496
   R11        2.07510   0.00047   0.00000   0.00049   0.00049   2.07560
    A1        2.33072  -0.00015   0.00000  -0.00028  -0.00028   2.33044
    A2        1.95269   0.00021   0.00000   0.00128   0.00128   1.95397
    A3        1.99978  -0.00006   0.00000  -0.00100  -0.00100   1.99878
    A4        2.12335   0.00000   0.00000  -0.00013  -0.00013   2.12322
    A5        2.11248   0.00003   0.00000   0.00035   0.00035   2.11284
    A6        2.04734  -0.00003   0.00000  -0.00023  -0.00023   2.04712
    A7        1.92074   0.00000   0.00000   0.00001   0.00001   1.92075
    A8        1.92040   0.00002   0.00000   0.00013   0.00013   1.92052
    A9        1.93260   0.00000   0.00000   0.00024   0.00024   1.93284
   A10        1.92394   0.00000   0.00000  -0.00011  -0.00011   1.92383
   A11        1.83528  -0.00001   0.00000  -0.00040  -0.00040   1.83488
   A12        1.92943  -0.00002   0.00000   0.00012   0.00012   1.92955
   A13        1.87490   0.00015   0.00000  -0.00070  -0.00070   1.87420
   A14        1.80305   0.00051   0.00000  -0.00085  -0.00085   1.80220
   A15        3.03389   0.00049   0.00000   0.00505   0.00505   3.03893
   A16        3.02300   0.00028   0.00000   0.00465   0.00465   3.02764
    D1        0.00215   0.00000   0.00000  -0.00055  -0.00054   0.00161
    D2        3.13773  -0.00001   0.00000  -0.00037  -0.00037   3.13736
    D3       -3.13952  -0.00000   0.00000  -0.00031  -0.00031  -3.13982
    D4       -0.00394  -0.00001   0.00000  -0.00014  -0.00014  -0.00407
    D5       -0.27685  -0.00011   0.00000   0.00232   0.00232  -0.27453
    D6        2.84800   0.00000   0.00000   0.00338   0.00338   2.85138
    D7        1.13211   0.00001   0.00000   0.00024   0.00024   1.13235
    D8       -3.07702   0.00001   0.00000   0.00014   0.00014  -3.07689
    D9       -1.00081  -0.00000   0.00000  -0.00017  -0.00017  -1.00098
   D10       -1.60577  -0.00037   0.00000  -0.00993  -0.00993  -1.61570
         Item               Value     Threshold  Converged?
 Maximum Force            0.001144     0.000450     NO 
 RMS     Force            0.000255     0.000300     YES
 Maximum Displacement     0.027291     0.001800     NO 
 RMS     Displacement     0.011138     0.001200     NO 
 Predicted change in Energy=-6.029776D-06
 GradGradGradGradGradGradGradGradGradGradGradGradGradGradGradGradGradGrad

                          Input orientation:                          
 ---------------------------------------------------------------------
 Center     Atomic      Atomic             Coordinates (Angstroms)
 Number     Number       Type             X           Y           Z
 ---------------------------------------------------------------------
      1          6           0       -1.773136    0.412111    0.377261
      2          6           0       -1.974291   -0.701396   -0.279616
      3          1           0       -2.921071   -1.232288   -0.225675
      4          1           0       -2.385249    1.005609    1.039349
      5          1           0       -1.199847   -1.128762   -0.906113
      6          6           0        1.684184   -0.747452    0.474882
      7          1           0        0.917963   -1.039336    1.194327
      8          1           0        2.124430   -1.632123    0.019165
      9          1           0        2.453202   -0.156092    0.968376
     10          8           0        1.111198   -0.020657   -0.603723
     11          8           0        0.597892    1.187568   -0.074161
     12          1           0       -0.447313    0.938694    0.153872
 ---------------------------------------------------------------------
                    Distance matrix (angstroms):
                    1          2          3          4          5
     1  C    0.000000
     2  C    1.308376   0.000000
     3  H    2.094119   1.086807   0.000000
     4  H    1.079483   2.196001   2.625942   0.000000
     5  H    2.085665   1.083929   1.853733   3.121785   0.000000
     6  C    3.647900   3.735750   4.683398   4.466781   3.220277
     7  H    3.164855   3.263716   4.097782   3.888062   2.984119
     8  H    4.415670   4.213672   5.067237   5.323120   3.487166
     9  H    4.305137   4.632228   5.609525   4.976464   4.219546
    10  O    3.077173   3.176270   4.227312   3.997255   2.580749
    11  O    2.535130   3.197893   4.273378   3.189379   3.047851
    12  H    1.443952   2.282426   3.313111   2.131700   2.442182
                    6          7          8          9         10
     6  C    0.000000
     7  H    1.090822   0.000000
     8  H    1.088181   1.785487   0.000000
     9  H    1.088408   1.785535   1.785430   0.000000
    10  O    1.421244   2.075580   2.002861   2.071428   0.000000
    11  O    2.285997   2.582752   3.207754   2.516840   1.415530
    12  H    2.736680   2.618994   3.638833   3.205458   1.980722
                   11         12
    11  O    0.000000
    12  H    1.098358   0.000000
 Stoichiometry    C3H7O2(2)
 Framework group  C1[X(C3H7O2)]
 Deg. of freedom    30
 Full point group                 C1      NOp   1
 Largest Abelian subgroup         C1      NOp   1
 Largest concise Abelian subgroup C1      NOp   1
                         Standard orientation:                         
 ---------------------------------------------------------------------
 Center     Atomic      Atomic             Coordinates (Angstroms)
 Number     Number       Type             X           Y           Z
 ---------------------------------------------------------------------
      1          6           0       -1.768962    0.406023    0.381862
      2          6           0       -1.965778   -0.726632   -0.242800
      3          1           0       -2.905923   -1.266006   -0.163091
      4          1           0       -2.379507    1.010319    1.035578
      5          1           0       -1.194325   -1.162182   -0.867348
      6          6           0        1.701864   -0.713472    0.467168
      7          1           0        0.947690   -0.994320    1.203536
      8          1           0        2.146278   -1.605176    0.029566
      9          1           0        2.470243   -0.101013    0.935269
     10          8           0        1.107858   -0.021764   -0.623077
     11          8           0        0.587721    1.194542   -0.119308
     12          1           0       -0.451833    0.940644    0.128186
 ---------------------------------------------------------------------
 Rotational constants (GHZ):           8.2565086           2.7017958           2.3283389
 Standard basis: CC-pVTZ (5D, 7F)
 There are   280 symmetry adapted cartesian basis functions of A   symmetry.
 There are   248 symmetry adapted basis functions of A   symmetry.
   248 basis functions,   379 primitive gaussians,   280 cartesian basis functions
    21 alpha electrons       20 beta electrons
       nuclear repulsion energy       174.0676642360 Hartrees.
 NAtoms=   12 NActive=   12 NUniq=   12 SFac= 1.00D+00 NAtFMM=   60 NAOKFM=F Big=F
 Integral buffers will be    131072 words long.
 Raffenetti 2 integral format.
 Two-electron integral symmetry is turned on.
 Nuclear repulsion after empirical dispersion term =      174.0624725406 Hartrees.
 One-electron integrals computed using PRISM.
 NBasis=   248 RedAO= T EigKep=  6.36D-04  NBF=   248
 NBsUse=   248 1.00D-06 EigRej= -1.00D+00 NBFU=   248
 Initial guess from the checkpoint file:  "/localscratch/341085/Gau-13312.chk"
 B after Tr=     0.000000    0.000000    0.000000
         Rot=    0.999998    0.001919   -0.000709   -0.000586 Ang=   0.24 deg.
 Initial guess <Sx>= 0.0000 <Sy>= 0.0000 <Sz>= 0.5000 <S**2>= 0.7803 S= 0.5150
 ExpMin= 1.03D-01 ExpMax= 1.53D+04 ExpMxC= 5.22D+02 IAcc=3 IRadAn=         5 AccDes= 0.00D+00
 Harris functional with IExCor=  419 and IRadAn=       5 diagonalized for initial guess.
 HarFok:  IExCor=  419 AccDes= 0.00D+00 IRadAn=         5 IDoV= 1 UseB2=F ITyADJ=14
 ICtDFT=  3500011 ScaDFX=  1.000000  1.000000  1.000000  1.000000
 FoFCou: FMM=F IPFlag=           0 FMFlag=      100000 FMFlg1=           0
         NFxFlg=           0 DoJE=T BraDBF=F KetDBF=T FulRan=T
         wScrn=  0.000000 ICntrl=       500 IOpCl=  0 I1Cent=   200000004 NGrid=           0
         NMat0=    1 NMatS0=      1 NMatT0=    0 NMatD0=    1 NMtDS0=    0 NMtDT0=    0
 Petite list used in FoFCou.
 Keep R1 and R2 ints in memory in canonical form, NReq=997886056.
 Requested convergence on RMS density matrix=1.00D-08 within 128 cycles.
 Requested convergence on MAX density matrix=1.00D-06.
 Requested convergence on             energy=1.00D-06.
 No special actions if energy rises.
 Integral accuracy reduced to 1.0D-05 until final iterations.
 Initial convergence to 1.0D-05 achieved.  Increase integral accuracy.
 SCF Done:  E(UB2PLYPD3) =  -268.326334772     A.U. after   11 cycles
            NFock= 11  Conv=0.97D-08     -V/T= 2.0043
 <Sx>= 0.0000 <Sy>= 0.0000 <Sz>= 0.5000 <S**2>= 0.7803 S= 0.5150
 <L.S>=  0.00000000000    
 Annihilation of the first spin contaminant:
 S**2 before annihilation     0.7803,   after     0.7506
 DoSCS=T DFT=T ScalE2(SS,OS)=  0.270000  0.270000
 ExpMin= 1.03D-01 ExpMax= 1.53D+04 ExpMxC= 5.22D+02 IAcc=3 IRadAn=         5 AccDes= 0.00D+00
 HarFok:  IExCor=  205 AccDes= 0.00D+00 IRadAn=         5 IDoV=-2 UseB2=F ITyADJ=14
 ICtDFT= 12500011 ScaDFX=  1.000000  1.000000  1.000000  1.000000
 Range of M.O.s used for correlation:     6   248
 NBasis=   248 NAE=    21 NBE=    20 NFC=     5 NFV=     0
 NROrb=    243 NOA=    16 NOB=    15 NVA=   227 NVB=   228

 **** Warning!!: The largest alpha MO coefficient is  0.12021442D+02


 **** Warning!!: The largest beta MO coefficient is  0.12021351D+02

 DoSCS=T DFT=T ScalE2(SS,OS)=  0.270000  0.270000
 Fully direct method using O(ONN) memory.
 JobTyp=2 Pass  1:  I=   6 to  21 NPSUse= 40 ParTrn=T ParDer=T DoDerP=T.
 JobTyp=3 Pass  1:  I=   6 to  20 NPSUse= 40 ParTrn=T ParDer=T DoDerP=T.
 Spin components of T(2) and E(2):
     alpha-alpha T2 =       0.5465167212D-01 E2=     -0.4010451906D-01
     alpha-beta  T2 =       0.3394551783D+00 E2=     -0.2465353779D+00
     beta-beta   T2 =       0.5915033957D-01 E2=     -0.3886367162D-01
 (S**2,0)=  0.78031D+00           (S**2,1)=  0.75126D+00
 Scaling Projection term by:   0.270000
 E(PUHF)=      -0.26833265251D+03        E(PMP2)=      -0.26865273667D+03
 E2(B2PLYPD3) =    -0.3255035686D+00 E(B2PLYPD3) =    -0.26865183834061D+03
          IDoAtm=111111111111
          Differentiating once with respect to electric field.
                with respect to dipole field.
          Differentiating once with respect to nuclear coordinates.
 Keep R1 and R2 ints in memory in canonical form, NReq=997895152.
          There are     1 degrees of freedom in the 1st order CPHF.  IDoFFX=0 NUNeed=     1.
 LinEq1:  Iter=  0 NonCon=     1 RMS=1.18D-03 Max=6.63D-02 NDo=     1
 AX will form     1 AO Fock derivatives at one time.
 LinEq1:  Iter=  1 NonCon=     1 RMS=4.05D-04 Max=1.51D-02 NDo=     1
 LinEq1:  Iter=  2 NonCon=     1 RMS=2.57D-04 Max=1.14D-02 NDo=     1
 LinEq1:  Iter=  3 NonCon=     1 RMS=1.39D-04 Max=6.83D-03 NDo=     1
 LinEq1:  Iter=  4 NonCon=     1 RMS=9.48D-05 Max=4.02D-03 NDo=     1
 LinEq1:  Iter=  5 NonCon=     1 RMS=3.96D-05 Max=8.33D-04 NDo=     1
 LinEq1:  Iter=  6 NonCon=     1 RMS=2.94D-05 Max=8.23D-04 NDo=     1
 LinEq1:  Iter=  7 NonCon=     1 RMS=1.18D-05 Max=3.26D-04 NDo=     1
 LinEq1:  Iter=  8 NonCon=     1 RMS=7.87D-06 Max=2.07D-04 NDo=     1
 LinEq1:  Iter=  9 NonCon=     1 RMS=3.08D-06 Max=8.24D-05 NDo=     1
 LinEq1:  Iter= 10 NonCon=     1 RMS=8.56D-07 Max=1.32D-05 NDo=     1
 LinEq1:  Iter= 11 NonCon=     1 RMS=2.98D-07 Max=4.71D-06 NDo=     1
[...]
    A1        2.33028  -0.00000   0.00000  -0.00002  -0.00002   2.33026
    A2        1.95452   0.00001   0.00000   0.00009   0.00009   1.95460
    A3        1.99839  -0.00001   0.00000  -0.00007  -0.00007   1.99833
    A4        2.12317  -0.00000   0.00000  -0.00001  -0.00001   2.12316
    A5        2.11293   0.00000   0.00000   0.00002   0.00002   2.11295
    A6        2.04707  -0.00000   0.00000  -0.00001  -0.00001   2.04706
    A7        1.92074  -0.00000   0.00000  -0.00001  -0.00001   1.92073
    A8        1.92054  -0.00000   0.00000  -0.00000  -0.00000   1.92053
    A9        1.93288   0.00000   0.00000   0.00000   0.00000   1.93289
   A10        1.92380  -0.00000   0.00000   0.00000   0.00000   1.92380
   A11        1.83484  -0.00000   0.00000   0.00001   0.00001   1.83484
   A12        1.92957  -0.00000   0.00000  -0.00000  -0.00000   1.92957
   A13        1.87416   0.00000   0.00000   0.00003   0.00003   1.87419
   A14        1.80223   0.00002   0.00000   0.00008   0.00008   1.80231
   A15        3.04040   0.00002   0.00000   0.00037   0.00037   3.04076
   A16        3.02834   0.00000   0.00000  -0.00014  -0.00014   3.02820
    D1        0.00141   0.00000   0.00000  -0.00002  -0.00002   0.00138
    D2        3.13726  -0.00000   0.00000   0.00002   0.00002   3.13728
    D3       -3.13972   0.00000   0.00000   0.00003   0.00003  -3.13969
    D4       -0.00387   0.00000   0.00000   0.00007   0.00007  -0.00380
    D5       -0.27502  -0.00001   0.00000  -0.00111  -0.00111  -0.27612
    D6        2.85145  -0.00000   0.00000  -0.00098  -0.00098   2.85047
    D7        1.13236  -0.00000   0.00000   0.00001   0.00001   1.13237
    D8       -3.07688   0.00000   0.00000   0.00001   0.00001  -3.07687
    D9       -1.00101  -0.00000   0.00000   0.00001   0.00001  -1.00100
   D10       -1.61797  -0.00001   0.00000   0.00022   0.00022  -1.61775
         Item               Value     Threshold  Converged?
 Maximum Force            0.000020     0.000450     YES
 RMS     Force            0.000006     0.000300     YES
 Maximum Displacement     0.001782     0.001800     YES
 RMS     Displacement     0.000768     0.001200     YES
 Predicted change in Energy=-1.061554D-08
 Optimization completed.
    -- Stationary point found.
                           ----------------------------
                           !   Optimized Parameters   !
                           ! (Angstroms and Degrees)  !
 --------------------------                            --------------------------
 ! Name  Definition              Value          Derivative Info.                !
 --------------------------------------------------------------------------------
 ! R1    R(1,2)                  1.3084         -DE/DX =    0.0                 !
 ! R2    R(1,4)                  1.0795         -DE/DX =    0.0                 !
 ! R3    R(1,12)                 1.4437         -DE/DX =    0.0                 !
 ! R4    R(2,3)                  1.0868         -DE/DX =    0.0                 !
 ! R5    R(2,5)                  1.0839         -DE/DX =    0.0                 !
 ! R6    R(6,7)                  1.0908         -DE/DX =    0.0                 !
 ! R7    R(6,8)                  1.0882         -DE/DX =    0.0                 !
 ! R8    R(6,9)                  1.0884         -DE/DX =    0.0                 !
 ! R9    R(6,10)                 1.4212         -DE/DX =    0.0                 !
 ! R10   R(10,11)                1.4157         -DE/DX =    0.0                 !
 ! R11   R(11,12)                1.0985         -DE/DX =    0.0                 !
 ! A1    A(2,1,4)              133.515          -DE/DX =    0.0                 !
 ! A2    A(2,1,12)             111.9855         -DE/DX =    0.0                 !
 ! A3    A(4,1,12)             114.4995         -DE/DX =    0.0                 !
 ! A4    A(1,2,3)              121.6488         -DE/DX =    0.0                 !
 ! A5    A(1,2,5)              121.062          -DE/DX =    0.0                 !
 ! A6    A(3,2,5)              117.2884         -DE/DX =    0.0                 !
 ! A7    A(7,6,8)              110.0503         -DE/DX =    0.0                 !
 ! A8    A(7,6,9)              110.0386         -DE/DX =    0.0                 !
 ! A9    A(7,6,10)             110.746          -DE/DX =    0.0                 !
 ! A10   A(8,6,9)              110.2255         -DE/DX =    0.0                 !
 ! A11   A(8,6,10)             105.1285         -DE/DX =    0.0                 !
 ! A12   A(9,6,10)             110.5562         -DE/DX =    0.0                 !
 ! A13   A(6,10,11)            107.3814         -DE/DX =    0.0                 !
 ! A14   A(10,11,12)           103.2604         -DE/DX =    0.0                 !
 ! A15   L(1,12,11,7,-1)       174.2019         -DE/DX =    0.0                 !
 ! A16   L(1,12,11,7,-2)       173.5109         -DE/DX =    0.0                 !
 ! D1    D(4,1,2,3)              0.0805         -DE/DX =    0.0                 !
 ! D2    D(4,1,2,5)            179.7516         -DE/DX =    0.0                 !
 ! D3    D(12,1,2,3)          -179.8928         -DE/DX =    0.0                 !
 ! D4    D(12,1,2,5)            -0.2218         -DE/DX =    0.0                 !
 ! D5    D(2,1,11,10)          -15.7572         -DE/DX =    0.0                 !
 ! D6    D(4,1,11,10)          163.3761         -DE/DX =    0.0                 !
 ! D7    D(7,6,10,11)           64.8797         -DE/DX =    0.0                 !
 ! D8    D(8,6,10,11)         -176.2921         -DE/DX =    0.0                 !
 ! D9    D(9,6,10,11)          -57.3539         -DE/DX =    0.0                 !
 ! D10   D(6,10,11,12)         -92.7028         -DE/DX =    0.0                 !
 --------------------------------------------------------------------------------
 GradGradGradGradGradGradGradGradGradGradGradGradGradGradGradGradGradGrad


 ----------------------------------------------------------------------

 Electric dipole moment (input orientation):
 (Debye = 10**-18 statcoulomb cm , SI units = C m)
                  (au)            (Debye)         (10**-30 SI)
   Tot        0.966066D+00      0.245549D+01      0.819065D+01
   x         -0.404944D+00     -0.102927D+01     -0.343326D+01
   y         -0.691130D+00     -0.175668D+01     -0.585964D+01
   z          0.540040D+00      0.137264D+01      0.457865D+01

 Dipole polarizability, Alpha (input orientation).
 (esu units = cm**3 , SI units = C**2 m**2 J**-1)
 Alpha(0;0):
               (au)            (10**-24 esu)      (10**-40 SI)
   iso        0.561291D+02      0.831747D+01      0.925444D+01
   aniso      0.362099D+02      0.536575D+01      0.597020D+01
   xx         0.778631D+02      0.115381D+02      0.128379D+02
   yx         0.210086D+01      0.311316D+00      0.346386D+00
   yy         0.514113D+02      0.761836D+01      0.847657D+01
   zx        -0.185846D+01     -0.275395D+00     -0.306418D+00
   zy         0.609069D+01      0.902548D+00      0.100422D+01
   zz         0.391129D+02      0.579594D+01      0.644885D+01

 ----------------------------------------------------------------------

 Dipole orientation:
     6         -2.82636442          1.67717931          1.24648128
     6         -3.28269246         -0.55042356          2.21741577
     1         -4.63704868         -0.80537929          3.74013172
     1         -3.54331401          3.54874628          1.62667071
     1         -2.32548669         -2.22255702          1.52222102
     6          3.47665270         -0.91893636          0.17614956
     1          2.87119539         -0.03823447          1.93877885
     1          4.17600087         -2.81804330          0.54077724
     1          4.94051791          0.21919738         -0.71388766
     8          1.39432086         -1.24632168         -1.48811237
     8          0.51275510          1.19011068         -2.15404515
     1         -0.96943000          1.56074698         -0.74871583

 Electric dipole moment (dipole orientation):
 (Debye = 10**-18 statcoulomb cm , SI units = C m)
                  (au)            (Debye)         (10**-30 SI)
   Tot        0.966066D+00      0.245549D+01      0.819065D+01
   x          0.000000D+00      0.000000D+00      0.000000D+00
   y          0.000000D+00      0.000000D+00      0.000000D+00
   z          0.966066D+00      0.245549D+01      0.819065D+01

 Dipole polarizability, Alpha (dipole orientation).
 (esu units = cm**3 , SI units = C**2 m**2 J**-1)
 Alpha(0;0):
               (au)            (10**-24 esu)      (10**-40 SI)
   iso        0.561291D+02      0.831747D+01      0.925444D+01
   aniso      0.362099D+02      0.536575D+01      0.597020D+01
   xx         0.669943D+02      0.992752D+01      0.110459D+02
   yx        -0.702582D+01     -0.104112D+01     -0.115840D+01
   yy         0.519179D+02      0.769344D+01      0.856010D+01
   zx        -0.169607D+02     -0.251332D+01     -0.279645D+01
   zy        -0.316114D+01     -0.468433D+00     -0.521202D+00
   zz         0.494751D+02      0.733146D+01      0.815735D+01

 ----------------------------------------------------------------------
 1\1\GINC-N58\Freq\UB2PLYPD3-FC\CC-pVTZ\C3H7O2(2)\ROOT\05-Jun-2019\0\\#
 N Geom=AllCheck Guess=TCheck SCRF=Check GenChk UB2PLYPD3(FC)/CC-pVTZ F
 req\\Title Card Required\\0,2\C,-1.7742895004,0.411958787,0.3767413125
 \C,-1.9771784002,-0.7009760495,-0.2805807512\H,-2.9249094643,-1.230209
 8171,-0.227074401\H,-2.3857580743,1.0062598079,1.0387094247\H,-1.20332
 74652,-1.1295889681,-0.9069390011\C,1.6868855308,-0.747204725,0.475390
 6544\H,0.9219795279,-1.0398187435,1.1959171387\H,2.1276817493,-1.63147
 38727,0.0194203588\H,2.455801799,-0.1547061621,0.9676815926\O,1.111631
 4308,-0.0215689914,-0.6027543073\O,0.5974179034,1.18630911,-0.07291403
 66\H,-0.4479730369,0.9368956245,0.1543480154\\Version=ES64L-G16RevB.01
 \State=2-A\HF=-268.3263377\MP2=-268.6518384\PUHF=-268.3326589\PMP2-0=-
 268.6527372\S2=0.780323\S2-1=0.751261\S2A=0.750621\RMSD=1.938e-09\RMSF
 =5.698e-06\ZeroPoint=0.0891416\Thermal=0.0962964\Dipole=-0.4049441,-0.
 69113,0.5400398\DipoleDeriv=0.9479167,0.0648349,-0.1766793,0.6482711,-
 0.0273471,0.0288494,-0.0583142,0.1021524,-0.1343587,-0.3269802,0.02413
 73,-0.0543544,-0.1271576,-0.1803126,0.0514817,-0.0467357,0.033325,-0.1
 757906,0.0121264,-0.0644016,0.0134423,-0.1213305,0.0683323,-0.0188488,
 -0.033866,-0.0213897,0.1257912,-0.1297754,0.0379554,0.0994459,-0.18213
 08,0.1008928,-0.0312049,0.0196294,-0.0778288,0.1222868,0.0901179,0.020
 9258,0.0667588,0.000402,0.0871026,-0.030442,0.0415208,-0.0408709,0.103
 6391,0.5227092,-0.0409571,0.0518708,-0.1982212,0.3381206,-0.0838996,0.
 3086178,-0.1118954,0.4133098,-0.0865189,-0.0459161,0.1108552,0.0210873
 ,0.0172378,0.0218746,-0.0233477,0.0671381,-0.0401868,0.0199378,0.06486
 41,0.0011778,0.1036912,-0.0471587,-0.0328127,-0.0008732,-0.0520222,0.0
 124503,-0.0817822,-0.026954,-0.0676553,-0.1009253,-0.0086718,-0.054152
 6,-0.1164535,0.0208533,0.0040521,-0.5388868,-0.0600375,-0.0266743,0.76
 55303,-0.1895496,0.0109547,0.1369181,0.0999239,-0.3812946,0.5890965,0.
 1013139,-0.1461368,-0.561549,-0.256536,0.1298131,-0.5055686,-0.0124981
 ,-0.1763005,-1.0179608,-0.0757652,0.1279494,-0.2476674,0.0978897,0.008
 387,0.2784728,-0.0068876,0.126402\Polar=77.8631085,2.1008638,51.411261
 5,-1.8584581,6.0906942,39.1129103\PG=C01 [X(C3H7O2)]\NImag=1\\0.216466
 17,-0.03454429,0.61192522,-0.08738503,0.37870239,0.35765072,-0.0757774
 3,-0.07818003,-0.03564381,0.53218146,-0.05345328,-0.44518481,-0.249090
 73,0.11404864,0.64747017,-0.02013100,-0.23905162,-0.18938972,-0.109310
 88,0.31672391,0.36246166,-0.00304309,-0.00584366,0.00254897,-0.2562790
 9,-0.11473578,0.01898283,0.27054567,-0.02503707,-0.01338094,-0.0060453
 1,-0.11771029,-0.10416146,0.00346109,0.13219512,0.10903603,-0.01001551
 ,-0.01408104,0.00682240,0.01661760,0.00212634,-0.03960152,-0.02129702,
 0.00581975,0.02856095,-0.13296916,0.10945024,0.11896447,0.00838826,-0.
 01044245,-0.00944421,0.00053257,0.00238566,-0.00040810,0.13148770,0.09
 164674,-0.12859188,-0.10677995,0.01894422,-0.00502913,-0.01318630,0.00
 079779,0.00040161,0.00246618,-0.10133901,0.13278669,0.10683635,-0.1151
 4155,-0.15085923,0.01002660,-0.00050868,-0.00223283,-0.00137436,0.0018
 3874,-0.00208367,-0.11687492,0.12084450,0.14915752,0.00689742,0.000231
 61,-0.00256502,-0.19342878,0.07502870,0.11905438,-0.01340896,0.0093430
 5,0.01555193,0.00089942,-0.00358635,0.00136292,0.19906048,0.01791643,-
 0.01253157,-0.01649009,0.07632571,-0.08662167,-0.06731560,-0.01206471,
 0.00866762,0.00583083,-0.00254039,-0.00053833,-0.00556753,-0.08157608,
 0.09198757,0.00911998,-0.00869240,-0.00936985,0.12040861,-0.06714137,-
 0.13388752,0.00098637,-0.00336835,0.00504532,0.00197273,-0.00508157,0.
 00514454,-0.13260526,0.08338515,0.13505980,-0.00411205,-0.00226375,-0.
 00080276,0.00095876,0.00066649,0.00001502,0.00016853,0.00005095,0.0003
 2035,0.00087442,0.00078459,-0.00001585,-0.00067763,-0.00006510,-0.0006
 7987,0.56204954,0.00566160,0.00379551,-0.00012560,-0.00162817,-0.00081
 667,0.00055218,0.00002392,-0.00046573,-0.00004912,-0.00126961,-0.00069
 302,-0.00035022,0.00076430,0.00074442,-0.00045351,0.02728027,0.5589457
 5,-0.00720883,-0.00457680,-0.00018588,0.00221601,0.00174521,-0.0003691
 8,-0.00013165,0.00076834,-0.00015160,0.00158098,0.00065505,0.00075130,
 -0.00084901,-0.00056815,0.00052957,-0.04742683,0.07989576,0.52797460,0
 .00038397,0.00039181,0.00010744,-0.00046159,-0.00031068,-0.00011491,-0
 .00009435,0.00013154,-0.00035766,-0.00004210,-0.00031325,0.00021238,0.
 00005384,-0.00016362,0.00015613,-0.19252517,-0.04898727,0.12340674,0.1
 9861126,-0.00096810,-0.00057026,-0.00024420,0.00025845,0.00010142,0.00
 001753,-0.00002942,0.00009692,0.00000286,0.00028168,0.00010509,0.00008
 819,-0.00012447,-0.00000351,-0.00000056,-0.04754960,-0.06740743,0.0347
 2452,0.05112918,0.06886279,0.00240517,0.00149493,0.00035670,-0.0006747
 1,-0.00075829,0.00016545,0.00007936,-0.00019800,-0.00007617,-0.0004370
 6,-0.00029052,-0.00015490,0.00005279,0.00015228,-0.00043676,0.11761740
 ,0.03864747,-0.15042189,-0.12843570,-0.05169756,0.17549519,0.00052668,
 0.00036000,-0.00010762,-0.00033310,-0.00015112,0.00013637,0.00001769,-
 0.00004961,-0.00007728,-0.00011585,-0.00013917,-0.00001858,-0.00005191
 ,0.00009783,-0.00003964,-0.09235082,0.08311271,0.04450967,-0.00761310,
 0.01853366,0.00936667,0.09660446,-0.00072796,-0.00039756,-0.00005741,0
 .00038690,0.00024496,-0.00002014,-0.00003004,0.00006942,0.00004339,0.0
 0016176,0.00012129,0.00005860,-0.00000048,-0.00006683,-0.00000210,0.08
 445688,-0.22114433,-0.09158573,-0.00418339,0.00909752,0.00315304,-0.09
 960530,0.24517453,0.00054615,0.00026049,0.00011095,-0.00024885,-0.0002
 3253,-0.00003609,0.00001282,-0.00006890,-0.00002168,-0.00013813,-0.000
 06372,-0.00006287,-0.00001853,0.00000452,0.00001180,0.05026585,-0.1020
 4184,-0.10585768,0.00611293,-0.01698632,-0.00668463,-0.04785584,0.0986
 1999,0.10732968,0.00061602,0.00032647,-0.00005177,-0.00019738,0.000131
 77,0.00009755,-0.00004594,0.00000352,-0.00008568,-0.00017317,-0.000168
 48,0.00002956,0.00021735,0.00003956,0.00009766,-0.18072898,-0.10655975
 ,-0.07445616,-0.01498577,-0.01483681,-0.00945887,0.01153701,0.00730469
 ,0.00702986,0.19320390,0.00014829,0.00005492,-0.00011002,-0.00004639,-
 0.00006170,-0.00012669,0.00000969,0.00000978,-0.00001203,0.00000944,-0
 .00001668,0.00000305,-0.00008162,-0.00011902,0.00013240,-0.11112680,-0
 .13998249,-0.07027027,-0.00419294,-0.00300020,-0.00428181,-0.01853319,
 -0.01185769,-0.00935659,0.11436879,0.14301901,0.00130488,0.00089220,-0
 .00000602,-0.00033656,-0.00034958,0.00014591,0.00000258,-0.00011919,0.
 00000776,-0.00026334,-0.00015514,-0.00008115,0.00026483,0.00020068,-0.
 00018923,-0.07417845,-0.06252442,-0.09505303,0.01506770,0.01134786,0.0
 1082542,-0.00891348,-0.00733689,-0.00454836,0.09232179,0.06664505,0.11
 200161,0.00757046,0.00483751,0.00169516,-0.00232147,-0.00009326,0.0006
 2833,-0.00055433,-0.00056403,-0.00000267,-0.00181703,-0.00120926,-0.00
 089177,0.00035009,0.00045844,0.00045141,-0.08274152,0.01745746,-0.0581
 6376,0.01422471,-0.00447728,0.01134220,-0.00750628,0.00927208,-0.01114
 747,-0.01067558,0.02042431,-0.02804602,0.16517820,-0.03304548,-0.01921
 785,0.00114696,0.00792980,0.00403092,-0.00165552,-0.00074487,0.0023678
 1,0.00208676,0.00542599,0.00435933,0.00079049,-0.00065223,0.00067070,0
 .00145888,0.02239934,-0.08345040,0.06104553,0.00944469,-0.01139486,0.0
 1795323,0.01438104,-0.01939974,0.02269228,0.00282814,0.00745118,-0.006
 22828,-0.12241984,0.27758209,-0.00899644,-0.00619982,-0.00024210,0.001
 76614,0.00098350,-0.00000498,-0.00019843,0.00064124,0.00062115,0.00154
 776,0.00152640,0.00015166,0.00031598,0.00068658,-0.00014405,-0.0377886
 6,0.02601788,-0.19243592,-0.01463930,0.02203612,-0.03094911,0.00581949
 ,-0.00728714,0.01093104,-0.01623038,0.01590692,-0.02467113,0.04154994,
 -0.00880250,0.31888405,-0.12186876,-0.05533704,0.01507541,0.01112154,0
 .00876892,0.00062186,-0.00093780,0.00108593,0.00179872,0.00498105,0.00
 583660,0.00177379,-0.00052706,0.00025638,-0.00024094,-0.01537848,0.033
 11782,0.00862184,0.00334249,-0.00425174,0.00124138,-0.00077513,0.00273
 905,-0.00444977,0.00263317,-0.00091255,0.00437736,-0.05858022,0.036164
 12,0.00540237,0.18300057,0.00369990,0.01133368,0.00210484,-0.00709395,
 -0.00240682,0.00223368,0.00082813,-0.00168611,-0.00202105,-0.00527579,
 -0.00392058,0.00069828,0.00078499,-0.00132990,-0.00070126,0.02142313,-
 0.04746408,-0.01047428,-0.00211775,0.00357872,-0.00425790,0.00213418,-
 0.00137659,0.00647984,-0.00304787,0.00477788,-0.00215541,0.04677873,-0
 .17000957,-0.04065375,-0.00198045,0.26434380,0.04035670,0.01932809,0.0
 0037510,-0.00646895,-0.00342511,0.00022017,0.00098068,-0.00132937,-0.0
 0041050,-0.00427228,-0.00257360,-0.00127981,0.00034781,0.00030110,-0.0
 0092741,-0.00400651,0.01814751,0.01622809,-0.00187543,0.00078744,0.001
 14743,-0.00300933,0.00410810,-0.00091815,0.00031386,0.00167705,0.00127
 003,0.02445381,-0.07453401,-0.07168608,-0.02314526,0.04612755,0.059627
 59,0.10530977,0.06057114,-0.01183545,-0.02385117,-0.01945793,-0.000535
 35,0.00309910,-0.00183477,-0.00204467,-0.01204612,-0.01125441,-0.00106
 612,0.00061573,0.00131555,0.00037282,0.00446341,-0.00897328,0.00790100
 ,-0.00089418,0.00203444,-0.00309863,0.00006035,0.00022581,-0.00010901,
 -0.00140062,-0.00006703,-0.00160131,-0.02312701,0.05828930,0.02145152,
 -0.00701136,-0.05613324,-0.02367509,-0.04521789,0.02870323,-0.00723446
 ,-0.00301089,-0.01323488,-0.00756521,-0.00163251,-0.00040617,-0.000954
 96,-0.00221287,0.00315248,0.00101562,-0.00275386,-0.00013141,-0.000859
 48,0.00046468,0.00394360,-0.00206152,-0.00135920,-0.00082831,0.0005337
 9,0.00008312,-0.00014104,-0.00046498,0.00069278,-0.00039003,-0.0002749
 8,-0.00021687,0.02953515,0.00701038,-0.00485544,-0.02548703,-0.0558404
 4,-0.00861476,-0.02471559,0.06669624,-0.02683241,-0.01293486,-0.015263
 06,0.00164880,-0.00007268,0.00252865,-0.00059215,-0.00140004,0.0012875
 7,0.00777210,0.00263866,0.00154944,-0.00091282,-0.00061977,-0.00083621
 ,-0.00331970,0.00228391,-0.00100838,0.00035968,-0.00007589,0.00073327,
 0.00018957,0.00030627,-0.00025400,0.00039257,-0.00020706,0.00029818,0.
 01813083,-0.01595382,-0.01045454,-0.01107677,0.00261946,-0.00364645,0.
 01424029,0.02341582,0.02506552\\0.00000195,0.00000484,0.00000288,0.000
 00278,-0.00000306,0.00000007,0.00000084,-0.00000100,0.00000085,-0.0000
 0112,0.00000041,-0.00000158,0.00000113,-0.00000046,0.00000030,0.000000
 85,-0.00000081,0.00000089,-0.00000194,0.00000021,0.00000029,-0.0000001
 3,0.00000014,0.00000036,-0.00000029,0.00000028,0.,0.00000119,-0.000017
 64,-0.00001199,0.00000021,0.00002106,0.00001185,-0.00000547,-0.0000039
 8,-0.00000394\\\@


 QED = W**5 (WHICH WAS WHAT WE WANTED)
 Job cpu time:       0 days 14 hours 48 minutes 13.6 seconds.
 Elapsed time:       0 days  0 hours 22 minutes 57.5 seconds.
 File lengths (MBytes):  RWF=  26432 Int=      0 D2E=      0 Chk=     11 Scr=      1
 Normal termination of Gaussian 16 at Wed Jun  5 15:45:44 2019.
