 Entering Gaussian System, Link 0=g16
 Initial command:
 /ichec/packages/gaussian/16b01/l1.exe "/localscratch/353444/Gau-94523.inp" -scrdir="/localscratch/353444/"
 Entering Link 1 = /ichec/packages/gaussian/16b01/l1.exe PID=     95092.
  
 Copyright (c) 1988-2017, Gaussian, Inc.  All Rights Reserved.
  
 This is part of the Gaussian(R) 16 program.  It is based on
 the Gaussian(R) 09 system (copyright 2009, Gaussian, Inc.),
 the Gaussian(R) 03 system (copyright 2003, Gaussian, Inc.),
 the Gaussian(R) 98 system (copyright 1998, Gaussian, Inc.),
 the Gaussian(R) 94 system (copyright 1995, Gaussian, Inc.),
 the Gaussian 92(TM) system (copyright 1992, Gaussian, Inc.),
 the Gaussian 90(TM) system (copyright 1990, Gaussian, Inc.),
 the Gaussian 88(TM) system (copyright 1988, Gaussian, Inc.),
 the Gaussian 86(TM) system (copyright 1986, Carnegie Mellon
 University), and the Gaussian 82(TM) system (copyright 1983,
 Carnegie Mellon University). Gaussian is a federally registered
 trademark of Gaussian, Inc.
  
 This software contains proprietary and confidential information,
 including trade secrets, belonging to Gaussian, Inc.
  
 This software is provided under written license and may be
 used, copied, transmitted, or stored only in accord with that
 written license.
  
 The following legend is applicable only to US Government
 contracts under FAR:
  
                    RESTRICTED RIGHTS LEGEND
  
 Use, reproduction and disclosure by the US Government is
 subject to restrictions as set forth in subparagraphs (a)
 and (c) of the Commercial Computer Software - Restricted
 Rights clause in FAR 52.227-19.
  
 Gaussian, Inc.
 340 Quinnipiac St., Bldg. 40, Wallingford CT 06492
  
  
 ---------------------------------------------------------------
 Warning -- This program may not be used in any manner that
 competes with the business of Gaussian, Inc. or will provide
 assistance to any competitor of Gaussian, Inc.  The licensee
 of this program is prohibited from giving any competitor of
 Gaussian, Inc. access to this program.  By using this program,
 the user acknowledges that Gaussian, Inc. is engaged in the
 business of creating and licensing software in the field of
 computational chemistry and represents and warrants to the
 licensee that it is not a competitor of Gaussian, Inc. and that
 it will not use this program in any manner prohibited above.
 ---------------------------------------------------------------
  

 Cite this work as:
 Gaussian 16, Revision B.01,
 M. J. Frisch, G. W. Trucks, H. B. Schlegel, G. E. Scuseria, 
 M. A. Robb, J. R. Cheeseman, G. Scalmani, V. Barone, 
 G. A. Petersson, H. Nakatsuji, X. Li, M. Caricato, A. V. Marenich, 
 J. Bloino, B. G. Janesko, R. Gomperts, B. Mennucci, H. P. Hratchian, 
 J. V. Ortiz, A. F. Izmaylov, J. L. Sonnenberg, D. Williams-Young, 
 F. Ding, F. Lipparini, F. Egidi, J. Goings, B. Peng, A. Petrone, 
 T. Henderson, D. Ranasinghe, V. G. Zakrzewski, J. Gao, N. Rega, 
 G. Zheng, W. Liang, M. Hada, M. Ehara, K. Toyota, R. Fukuda, 
 J. Hasegawa, M. Ishida, T. Nakajima, Y. Honda, O. Kitao, H. Nakai, 
 T. Vreven, K. Throssell, J. A. Montgomery, Jr., J. E. Peralta, 
 F. Ogliaro, M. J. Bearpark, J. J. Heyd, E. N. Brothers, K. N. Kudin, 
 V. N. Staroverov, T. A. Keith, R. Kobayashi, J. Normand, 
 K. Raghavachari, A. P. Rendell, J. C. Burant, S. S. Iyengar, 
 J. Tomasi, M. Cossi, J. M. Millam, M. Klene, C. Adamo, R. Cammi, 
 J. W. Ochterski, R. L. Martin, K. Morokuma, O. Farkas, 
 J. B. Foresman, and D. J. Fox, Gaussian, Inc., Wallingford CT, 2016.
 
 ******************************************
 Gaussian 16:  ES64L-G16RevB.01 20-Dec-2017
                24-Jun-2019 
 ******************************************
 %mem=80GB
 %nproc=40
 Will use up to   40 processors via shared memory.
 ----------------------------------------------------------------------
 # opt=(calcfc,ts,noeigentest,maxcyc=500) freq=noraman uB2PLYPD3/cc-pvt
 z
 ----------------------------------------------------------------------
 1/5=1,6=500,10=4,11=1,18=20,38=1/1,3;
 2/9=110,12=2,17=6,18=5,40=1/2;
 3/5=16,6=1,11=2,25=1,30=1,71=2,74=-60,116=2,140=1/1,2,3;
 4//1;
 5/5=2,38=5/2;
 8/6=3,8=1,10=1,19=11,30=-1/1;
 9/15=3,16=-3/6;
 11/6=1,8=1,15=11,17=12,24=-1,27=1,28=-2,29=300,32=6,42=3/1,2,10;
 10/6=2,21=1/2;
 8/6=4,8=1,10=1,19=11,30=-1/11,4;
 10/5=1,20=4/2;
 11/12=2,14=11,16=1,17=2,28=-2,42=3,76=2/2,10,12;
 6/7=2,8=2,9=2,10=2/1;
 7/10=1,12=2,25=1,44=2/1,2,3,16;
 1/5=1,6=500,10=4,11=1,18=20/3(2);
 2/9=110/2;
 99//99;
 2/9=110/2;
 3/5=16,6=1,11=2,25=1,30=1,71=1,74=-60,116=2/1,2,3;
 4/5=5,16=3,69=1/1;
 5/5=2,38=5/2;
 8/6=4,10=1/1;
 9/15=2,16=-3/6;
 10/5=1/2;
 7/12=2/1,2,3,16;
 1/5=1,6=500,11=1,18=20/3(-8);
 2/9=110/2;
 6/7=2,8=2,9=2,10=2/1;
 99/9=10/99;
 -------------------
 Title Card Required
 -------------------
 Symbolic Z-matrix:
 Charge =  0 Multiplicity = 2
 C                    -2.09958  -0.13165   0.80137 
 H                    -3.08242   0.32267   0.64293 
 H                    -2.20852  -0.9014    1.56248 
 H                    -1.44071   0.64053   1.19573 
 C                    -1.56394  -0.70165  -0.47804 
 H                    -2.02752  -1.61663  -0.83335 
 H                    -1.3686    0.008    -1.27591 
 C                     1.90983   0.4906    0.14189 
 H                     1.26573   0.9189   -0.62795 
 H                     2.28949   1.27942   0.7881 
 H                     2.73482  -0.04535  -0.3241 
 O                     1.17258  -0.37109   0.99697 
 O                     0.73402  -1.46707   0.22746 
 H                    -0.31909  -1.14304  -0.15222 
 
 Add virtual bond connecting atoms H14        and O13        Dist= 2.20D+00.
 Add virtual bond connecting atoms H14        and C5         Dist= 2.57D+00.

 GradGradGradGradGradGradGradGradGradGradGradGradGradGradGradGradGradGrad
 Berny optimization.
 Initialization pass.
                           ----------------------------
                           !    Initial Parameters    !
                           ! (Angstroms and Degrees)  !
 --------------------------                            --------------------------
 ! Name  Definition              Value          Derivative Info.                !
 --------------------------------------------------------------------------------
 ! R1    R(1,2)                  1.0943         calculate D2E/DX2 analytically  !
 ! R2    R(1,3)                  1.088          calculate D2E/DX2 analytically  !
 ! R3    R(1,4)                  1.089          calculate D2E/DX2 analytically  !
 ! R4    R(1,5)                  1.4996         calculate D2E/DX2 analytically  !
 ! R5    R(5,6)                  1.0855         calculate D2E/DX2 analytically  !
 ! R6    R(5,7)                  1.0855         calculate D2E/DX2 analytically  !
 ! R7    R(5,14)                 1.3604         calculate D2E/DX2 analytically  !
 ! R8    R(8,9)                  1.0913         calculate D2E/DX2 analytically  !
 ! R9    R(8,10)                 1.0881         calculate D2E/DX2 analytically  !
 ! R10   R(8,11)                 1.0886         calculate D2E/DX2 analytically  !
 ! R11   R(8,12)                 1.4203         calculate D2E/DX2 analytically  !
 ! R12   R(12,13)                1.4091         calculate D2E/DX2 analytically  !
 ! R13   R(13,14)                1.1654         calculate D2E/DX2 analytically  !
 ! A1    A(2,1,3)              107.764          calculate D2E/DX2 analytically  !
 ! A2    A(2,1,4)              107.5446         calculate D2E/DX2 analytically  !
 ! A3    A(2,1,5)              110.7992         calculate D2E/DX2 analytically  !
 ! A4    A(3,1,4)              107.9946         calculate D2E/DX2 analytically  !
 ! A5    A(3,1,5)              111.3278         calculate D2E/DX2 analytically  !
 ! A6    A(4,1,5)              111.2464         calculate D2E/DX2 analytically  !
 ! A7    A(1,5,6)              116.5586         calculate D2E/DX2 analytically  !
 ! A8    A(1,5,7)              116.2885         calculate D2E/DX2 analytically  !
 ! A9    A(1,5,14)             104.2318         calculate D2E/DX2 analytically  !
 ! A10   A(6,5,7)              112.7864         calculate D2E/DX2 analytically  !
 ! A11   A(6,5,14)             101.2859         calculate D2E/DX2 analytically  !
 ! A12   A(7,5,14)             102.9139         calculate D2E/DX2 analytically  !
 ! A13   A(9,8,10)             109.8987         calculate D2E/DX2 analytically  !
 ! A14   A(9,8,11)             109.7884         calculate D2E/DX2 analytically  !
 ! A15   A(9,8,12)             110.8818         calculate D2E/DX2 analytically  !
 ! A16   A(10,8,11)            110.2869         calculate D2E/DX2 analytically  !
 ! A17   A(10,8,12)            105.2717         calculate D2E/DX2 analytically  !
 ! A18   A(11,8,12)            110.635          calculate D2E/DX2 analytically  !
 ! A19   A(8,12,13)            107.7376         calculate D2E/DX2 analytically  !
 ! A20   A(12,13,14)           104.0579         calculate D2E/DX2 analytically  !
 ! A21   L(5,14,13,9,-1)       179.1797         calculate D2E/DX2 analytically  !
 ! A22   L(5,14,13,9,-2)       174.2075         calculate D2E/DX2 analytically  !
 ! D1    D(2,1,5,6)            -73.3362         calculate D2E/DX2 analytically  !
 ! D2    D(2,1,5,7)             63.5381         calculate D2E/DX2 analytically  !
 ! D3    D(2,1,5,14)           176.0235         calculate D2E/DX2 analytically  !
 ! D4    D(3,1,5,6)             46.5758         calculate D2E/DX2 analytically  !
 ! D5    D(3,1,5,7)           -176.5499         calculate D2E/DX2 analytically  !
 ! D6    D(3,1,5,14)           -64.0645         calculate D2E/DX2 analytically  !
 ! D7    D(4,1,5,6)            167.082          calculate D2E/DX2 analytically  !
 ! D8    D(4,1,5,7)            -56.0437         calculate D2E/DX2 analytically  !
 ! D9    D(4,1,5,14)            56.4417         calculate D2E/DX2 analytically  !
 ! D10   D(1,5,13,12)          -43.9468         calculate D2E/DX2 analytically  !
 ! D11   D(6,5,13,12)         -165.0202         calculate D2E/DX2 analytically  !
 ! D12   D(7,5,13,12)           77.1743         calculate D2E/DX2 analytically  !
 ! D13   D(9,8,12,13)           65.2718         calculate D2E/DX2 analytically  !
 ! D14   D(10,8,12,13)        -175.9263         calculate D2E/DX2 analytically  !
 ! D15   D(11,8,12,13)         -56.7911         calculate D2E/DX2 analytically  !
 ! D16   D(8,12,13,14)         -91.8754         calculate D2E/DX2 analytically  !
 --------------------------------------------------------------------------------
 Trust Radius=3.00D-01 FncErr=1.00D-07 GrdErr=1.00D-07 EigMax=2.50D+02 EigMin=1.00D-04
 Number of steps in this run=    100 maximum allowed number of steps=    100.
 Search for a saddle point of order  1.
 GradGradGradGradGradGradGradGradGradGradGradGradGradGradGradGradGradGrad

                          Input orientation:                          
 ---------------------------------------------------------------------
 Center     Atomic      Atomic             Coordinates (Angstroms)
 Number     Number       Type             X           Y           Z
 ---------------------------------------------------------------------
      1          6           0       -2.099580   -0.131652    0.801368
      2          1           0       -3.082420    0.322668    0.642926
      3          1           0       -2.208518   -0.901396    1.562478
      4          1           0       -1.440712    0.640529    1.195725
      5          6           0       -1.563939   -0.701647   -0.478039
      6          1           0       -2.027525   -1.616626   -0.833354
      7          1           0       -1.368598    0.007997   -1.275910
      8          6           0        1.909834    0.490597    0.141890
      9          1           0        1.265729    0.918904   -0.627951
     10          1           0        2.289492    1.279416    0.788101
     11          1           0        2.734817   -0.045350   -0.324102
     12          8           0        1.172584   -0.371093    0.996971
     13          8           0        0.734019   -1.467065    0.227464
     14          1           0       -0.319094   -1.143037   -0.152215
 ---------------------------------------------------------------------
                    Distance matrix (angstroms):
                    1          2          3          4          5
     1  C    0.000000
     2  H    1.094297   0.000000
     3  H    1.087962   1.762842   0.000000
     4  H    1.088985   1.761201   1.761126   0.000000
     5  C    1.499563   2.147456   2.149207   2.148978   0.000000
     6  H    2.209673   2.655761   2.506855   3.091320   1.085517
     7  H    2.206563   2.591937   3.096596   2.552308   1.085519
     8  C    4.110658   5.020143   4.573460   3.515566   3.724628
     9  H    3.804198   4.569138   4.492423   3.275379   3.264304
    10  H    4.610341   5.458377   5.058428   3.806410   4.514050
    11  H    4.964426   5.908538   5.359903   4.496148   4.351290
    12  O    3.286738   4.325704   3.468843   2.809306   3.126256
    13  O    3.184647   4.235677   3.280361   3.179455   2.522739
    14  H    2.258838   3.227462   2.562906   2.501215   1.360377
                    6          7          8          9         10
     6  H    0.000000
     7  H    1.808159   0.000000
     8  C    4.571027   3.604327   0.000000
     9  H    4.161325   2.861692   1.091317   0.000000
    10  H    5.445440   4.388425   1.088101   1.784170   0.000000
    11  H    5.040649   4.212695   1.088570   1.783348   1.786145
    12  O    3.891290   3.430350   1.420285   2.076810   2.003819
    13  O    2.962065   2.976061   2.285236   2.589845   3.205771
    14  H    1.899203   1.920684   2.779097   2.643783   3.682009
                   11         12         13         14
    11  H    0.000000
    12  O    2.071694   0.000000
    13  O    2.515689   1.409126   0.000000
    14  H    3.249744   2.035099   1.165417   0.000000
 Stoichiometry    C3H9O2(2)
 Framework group  C1[X(C3H9O2)]
 Deg. of freedom    36
 Full point group                 C1      NOp   1
 Largest Abelian subgroup         C1      NOp   1
 Largest concise Abelian subgroup C1      NOp   1
                         Standard orientation:                         
 ---------------------------------------------------------------------
 Center     Atomic      Atomic             Coordinates (Angstroms)
 Number     Number       Type             X           Y           Z
 ---------------------------------------------------------------------
      1          6           0       -2.055624   -0.667422   -0.320646
      2          1           0       -2.990134   -1.129403    0.012147
      3          1           0       -2.219349   -0.269934   -1.320076
      4          1           0       -1.306722   -1.454937   -0.390320
      5          6           0       -1.625422    0.408956    0.630681
      6          1           0       -2.193902    1.333407    0.606832
      7          1           0       -1.383338    0.090186    1.639706
      8          6           0        1.972836   -0.542329    0.487664
      9          1           0        1.352001   -0.706367    1.370063
     10          1           0        2.454319   -1.473285    0.195332
     11          1           0        2.721176    0.219185    0.699958
     12          8           0        1.178087   -0.165903   -0.627633
     13          8           0        0.601764    1.087532   -0.340600
     14          1           0       -0.423589    0.822887    0.146033
 ---------------------------------------------------------------------
 Rotational constants (GHZ):           8.0072924           2.3050151           2.1603959
 Standard basis: CC-pVTZ (5D, 7F)
 There are   310 symmetry adapted cartesian basis functions of A   symmetry.
 There are   276 symmetry adapted basis functions of A   symmetry.
   276 basis functions,   413 primitive gaussians,   310 cartesian basis functions
    22 alpha electrons       21 beta electrons
       nuclear repulsion energy       189.0174807041 Hartrees.
 NAtoms=   14 NActive=   14 NUniq=   14 SFac= 1.00D+00 NAtFMM=   60 NAOKFM=F Big=F
 Integral buffers will be    131072 words long.
 Raffenetti 2 integral format.
 Two-electron integral symmetry is turned on.
 Nuclear repulsion after empirical dispersion term =      189.0117175281 Hartrees.
 One-electron integrals computed using PRISM.
 NBasis=   276 RedAO= T EigKep=  1.08D-03  NBF=   276
 NBsUse=   276 1.00D-06 EigRej= -1.00D+00 NBFU=   276
 ExpMin= 1.03D-01 ExpMax= 1.53D+04 ExpMxC= 5.22D+02 IAcc=3 IRadAn=         5 AccDes= 0.00D+00
 Harris functional with IExCor=  419 and IRadAn=       5 diagonalized for initial guess.
 HarFok:  IExCor=  419 AccDes= 0.00D+00 IRadAn=         5 IDoV= 1 UseB2=F ITyADJ=14
 ICtDFT=  3500011 ScaDFX=  1.000000  1.000000  1.000000  1.000000
 FoFCou: FMM=F IPFlag=           0 FMFlag=      100000 FMFlg1=           0
         NFxFlg=           0 DoJE=T BraDBF=F KetDBF=T FulRan=T
         wScrn=  0.000000 ICntrl=       500 IOpCl=  0 I1Cent=   200000004 NGrid=           0
         NMat0=    1 NMatS0=      1 NMatT0=    0 NMatD0=    1 NMtDS0=    0 NMtDT0=    0
 Petite list used in FoFCou.
 Initial guess <Sx>= 0.0000 <Sy>= 0.0000 <Sz>= 0.5000 <S**2>= 0.7500 S= 0.5000
 Requested convergence on RMS density matrix=1.00D-08 within 128 cycles.
 Requested convergence on MAX density matrix=1.00D-06.
 Requested convergence on             energy=1.00D-06.
 No special actions if energy rises.
 Integral accuracy reduced to 1.0D-05 until final iterations.
 Initial convergence to 1.0D-05 achieved.  Increase integral accuracy.
 SCF Done:  E(UB2PLYPD3) =  -269.557885621     A.U. after   19 cycles
            NFock= 19  Conv=0.27D-08     -V/T= 2.0043
 <Sx>= 0.0000 <Sy>= 0.0000 <Sz>= 0.5000 <S**2>= 0.7683 S= 0.5091
 <L.S>=  0.00000000000    
 Annihilation of the first spin contaminant:
 S**2 before annihilation     0.7683,   after     0.7501
 DoSCS=T DFT=T ScalE2(SS,OS)=  0.270000  0.270000
 ExpMin= 1.03D-01 ExpMax= 1.53D+04 ExpMxC= 5.22D+02 IAcc=3 IRadAn=         5 AccDes= 0.00D+00
 HarFok:  IExCor=  205 AccDes= 0.00D+00 IRadAn=         5 IDoV=-2 UseB2=F ITyADJ=14
 ICtDFT= 12500011 ScaDFX=  1.000000  1.000000  1.000000  1.000000
 Range of M.O.s used for correlation:     6   276
 NBasis=   276 NAE=    22 NBE=    21 NFC=     5 NFV=     0
 NROrb=    271 NOA=    17 NOB=    16 NVA=   254 NVB=   255

 **** Warning!!: The largest alpha MO coefficient is  0.11984517D+02


 **** Warning!!: The largest beta MO coefficient is  0.11983767D+02

 DoSCS=T DFT=T ScalE2(SS,OS)=  0.270000  0.270000
 Disk-based method using ON**2 memory for 17 occupieds at a time.
 Permanent disk used for amplitudes=    44146851 words.
 Estimated scratch disk usage=   895077648 words.
 Actual    scratch disk usage=   865264912 words.
 JobTyp=2 Pass  1:  I=   6 to  22 NPSUse= 40 ParTrn=T ParDer=T DoDerP=T.
 (rs|ai) integrals will be sorted in core.
 Actual    scratch disk usage=   865264912 words.
 JobTyp=3 Pass  1:  I=   6 to  21 NPSUse= 40 ParTrn=T ParDer=T DoDerP=T.
 (rs|ai) integrals will be sorted in core.
 Spin components of T(2) and E(2):
     alpha-alpha T2 =       0.5410200199D-01 E2=     -0.4067794290D-01
     alpha-beta  T2 =       0.3355443930D+00 E2=     -0.2555769812D+00
     beta-beta   T2 =       0.5841256779D-01 E2=     -0.3914633959D-01
 (S**2,0)=  0.76828D+00           (S**2,1)=  0.74276D+00
 Scaling Projection term by:   0.270000
 E(PUHF)=      -0.26956405045D+03        E(PMP2)=      -0.26989379501D+03
 E2(B2PLYPD3) =    -0.3354012637D+00 E(B2PLYPD3) =    -0.26989328688510D+03
 G2DrvN: will do    15 centers at a time, making    1 passes.
 Calling FoFCou, ICntrl=  3107 FMM=F I1Cent=   0 AccDes= 0.00D+00.
 End of G2Drv F.D. properties file   721 does not exist.
 End of G2Drv F.D. properties file   722 does not exist.
 End of G2Drv F.D. properties file   788 does not exist.
          IDoAtm=11111111111111
          Differentiating once with respect to electric field.
                with respect to dipole field.
          Differentiating once with respect to nuclear coordinates.
 Keep R1 and R2 ints in memory in canonical form, NReq=1506835981.
          There are    45 degrees of freedom in the 1st order CPHF.  IDoFFX=6 NUNeed=    45.
     42 vectors produced by pass  0 Test12= 2.43D-14 2.22D-09 XBig12= 6.38D+01 4.91D+00.
 AX will form    42 AO Fock derivatives at one time.
     42 vectors produced by pass  1 Test12= 2.43D-14 2.22D-09 XBig12= 5.06D+00 2.91D-01.
     42 vectors produced by pass  2 Test12= 2.43D-14 2.22D-09 XBig12= 2.59D-01 1.11D-01.
     42 vectors produced by pass  3 Test12= 2.43D-14 2.22D-09 XBig12= 3.79D-03 6.53D-03.
     42 vectors produced by pass  4 Test12= 2.43D-14 2.22D-09 XBig12= 4.72D-05 8.24D-04.
     42 vectors produced by pass  5 Test12= 2.43D-14 2.22D-09 XBig12= 7.07D-07 1.07D-04.
     42 vectors produced by pass  6 Test12= 2.43D-14 2.22D-09 XBig12= 5.99D-09 8.12D-06.
     13 vectors produced by pass  7 Test12= 2.43D-14 2.22D-09 XBig12= 3.33D-11 5.51D-07.
      3 vectors produced by pass  8 Test12= 2.43D-14 2.22D-09 XBig12= 2.11D-13 5.69D-08.
      2 vectors produced by pass  9 Test12= 2.43D-14 2.22D-09 XBig12= 1.53D-15 3.82D-09.
 InvSVY:  IOpt=1 It=  1 EMax= 5.33D-15
 Solved reduced A of dimension   312 with    45 vectors.
 End of Minotr F.D. properties file   721 does not exist.
 End of Minotr F.D. properties file   722 does not exist.
 End of Minotr F.D. properties file   788 does not exist.
 MDV= 10737418240.
 DoSCS=T DFT=T ScalE2(SS,OS)=  0.270000  0.270000
 Form MO integral derivatives with frozen-active canonical formalism.
 Discarding MO integrals.
 Reordered first order wavefunction length =    178086595
 In DefCFB: NBatch=  1 ICI= 22 ICA=255 LFMax= 64
            Large arrays: LIAPS=  3745132320 LIARS=   852159000 words.
 In DefCFB: NBatch=  1 ICI= 22 ICA=255 LFMax= 64
            Large arrays: LIAPS=  3745132320 LIARS=   852159000 words.
 Semi-Direct transformation.
 ModeAB=           4 MOrb=            22 LenV=   10735094519
 LASXX=    219513657 LTotXX=   219513657 LenRXX=   442791723
 LTotAB=   223278066 MaxLAS=   277283952 LenRXY=           0
 NonZer=   662305380 LenScr=   997354496 LnRSAI=   277283952
 LnScr1=   417557504 LExtra=           0 Total=   2134987675
 MaxDsk=          -1 SrtSym=           T ITran=            4
 JobTyp=1 Pass  1:  I=   1 to  22.
 (rs|ai) integrals will be sorted in core.
 ModeAB=           4 MOrb=            21 LenV=   10735094519
 LASXX=    210045255 LTotXX=   210045255 LenRXX=   390947865
 LTotAB=   180902610 MaxLAS=   264680136 LenRXY=           0
 NonZer=   600993120 LenScr=   905025536 LnRSAI=   264680136
 LnScr1=   398577664 LExtra=           0 Total=   1959231201
 MaxDsk=          -1 SrtSym=           T ITran=            4
 JobTyp=2 Pass  1:  I=   1 to  21.
 (rs|ai) integrals will be sorted in core.
 SymMOI:  orbitals are not symmetric.
 DoSCS=T DFT=T ScalE2(SS,OS)=  0.270000  0.270000
 Spin components of T(2) and E(2):
     alpha-alpha T2 =       0.5410200199D-01 E2=     -0.4067794290D-01
     alpha-beta  T2 =       0.3355443930D+00 E2=     -0.2555769812D+00
     beta-beta   T2 =       0.5841256779D-01 E2=     -0.3914633959D-01
 E2(B2PLYPD3) =    -0.3354012637D+00 E(B2PLYPD3) =    -0.26989328688510D+03
 (S**2,0)=  0.76828D+00           (S**2,1)=  0.74276D+00
 Scaling Projection term by:   0.270000
 E(PUHF)=      -0.26956405045D+03        E(PMP2)=      -0.26989379501D+03
          IDoAtm=11111111111111
          Differentiating once with respect to electric field.
                with respect to dipole field.
          Differentiating once with respect to nuclear coordinates.
 Keep R1 and R2 ints in memory in canonical form, NReq=1506972220.
          There are     1 degrees of freedom in the 1st order CPHF.  IDoFFX=0 NUNeed=     1.
 LinEq1:  Iter=  0 NonCon=     1 RMS=1.02D-03 Max=6.64D-02 NDo=     1
 AX will form     1 AO Fock derivatives at one time.
 LinEq1:  Iter=  1 NonCon=     1 RMS=3.25D-04 Max=8.48D-03 NDo=     1
 LinEq1:  Iter=  2 NonCon=     1 RMS=1.77D-04 Max=7.77D-03 NDo=     1
 LinEq1:  Iter=  3 NonCon=     1 RMS=7.34D-05 Max=1.03D-03 NDo=     1
 LinEq1:  Iter=  4 NonCon=     1 RMS=4.06D-05 Max=6.38D-04 NDo=     1
 LinEq1:  Iter=  5 NonCon=     1 RMS=3.03D-05 Max=7.89D-04 NDo=     1
 LinEq1:  Iter=  6 NonCon=     1 RMS=1.84D-05 Max=4.59D-04 NDo=     1
 LinEq1:  Iter=  7 NonCon=     1 RMS=5.85D-06 Max=9.29D-05 NDo=     1
 LinEq1:  Iter=  8 NonCon=     1 RMS=2.37D-06 Max=3.20D-05 NDo=     1
 LinEq1:  Iter=  9 NonCon=     1 RMS=1.11D-06 Max=2.20D-05 NDo=     1
 LinEq1:  Iter= 10 NonCon=     1 RMS=3.64D-07 Max=6.48D-06 NDo=     1
 LinEq1:  Iter= 11 NonCon=     1 RMS=1.10D-07 Max=2.35D-06 NDo=     1
 LinEq1:  Iter= 12 NonCon=     1 RMS=4.20D-08 Max=8.43D-07 NDo=     1
 LinEq1:  Iter= 13 NonCon=     1 RMS=1.79D-08 Max=2.91D-07 NDo=     1
 LinEq1:  Iter= 14 NonCon=     1 RMS=6.25D-09 Max=8.14D-08 NDo=     1
 LinEq1:  Iter= 15 NonCon=     1 RMS=1.62D-09 Max=2.26D-08 NDo=     1
 LinEq1:  Iter= 16 NonCon=     1 RMS=4.57D-10 Max=1.05D-08 NDo=     1
 LinEq1:  Iter= 17 NonCon=     1 RMS=1.52D-10 Max=5.38D-09 NDo=     1
 LinEq1:  Iter= 18 NonCon=     1 RMS=5.23D-11 Max=2.55D-09 NDo=     1
 LinEq1:  Iter= 19 NonCon=     0 RMS=1.65D-11 Max=6.64D-10 NDo=     1
 Linear equations converged to 1.000D-10 1.000D-09 after    19 iterations.
 End of Minotr F.D. properties file   721 does not exist.
 End of Minotr F.D. properties file   722 does not exist.
 End of Minotr F.D. properties file   788 does not exist.
 Symmetrizing basis deriv contribution to polar:
 IMax=3 JMax=2 DiffMx= 0.00D+00
 G2DrvN: will do    15 centers at a time, making    1 passes.
 Calling FoFCou, ICntrl=  3107 FMM=F I1Cent=   0 AccDes= 0.00D+00.
 End of G2Drv F.D. properties file   721 does not exist.
 End of G2Drv F.D. properties file   722 does not exist.
 End of G2Drv F.D. properties file   788 does not exist.
 DoSCS=T DFT=T ScalE2(SS,OS)=  0.270000  0.270000
 R2 and R3 integrals will be kept in memory, NReq=  2338810190.
 DD1Dir will call FoFMem   1 times, MxPair=      1366
 NAB=   462 NAA=   231 NBB=   210.
 Discarding MO integrals.

 **********************************************************************

            Population analysis using the SCF Density.

 **********************************************************************

 Orbital symmetries:
 Alpha Orbitals:
       Occupied  (A) (A) (A) (A) (A) (A) (A) (A) (A) (A) (A) (A)
                 (A) (A) (A) (A) (A) (A) (A) (A) (A) (A)
       Virtual   (A) (A) (A) (A) (A) (A) (A) (A) (A) (A) (A) (A)
                 (A) (A) (A) (A) (A) (A) (A) (A) (A) (A) (A) (A)
                 (A) (A) (A) (A) (A) (A) (A) (A) (A) (A) (A) (A)
                 (A) (A) (A) (A) (A) (A) (A) (A) (A) (A) (A) (A)
                 (A) (A) (A) (A) (A) (A) (A) (A) (A) (A) (A) (A)
                 (A) (A) (A) (A) (A) (A) (A) (A) (A) (A) (A) (A)
                 (A) (A) (A) (A) (A) (A) (A) (A) (A) (A) (A) (A)
                 (A) (A) (A) (A) (A) (A) (A) (A) (A) (A) (A) (A)
                 (A) (A) (A) (A) (A) (A) (A) (A) (A) (A) (A) (A)
                 (A) (A) (A) (A) (A) (A) (A) (A) (A) (A) (A) (A)
                 (A) (A) (A) (A) (A) (A) (A) (A) (A) (A) (A) (A)
                 (A) (A) (A) (A) (A) (A) (A) (A) (A) (A) (A) (A)
                 (A) (A) (A) (A) (A) (A) (A) (A) (A) (A) (A) (A)
                 (A) (A) (A) (A) (A) (A) (A) (A) (A) (A) (A) (A)
                 (A) (A) (A) (A) (A) (A) (A) (A) (A) (A) (A) (A)
                 (A) (A) (A) (A) (A) (A) (A) (A) (A) (A) (A) (A)
                 (A) (A) (A) (A) (A) (A) (A) (A) (A) (A) (A) (A)
                 (A) (A) (A) (A) (A) (A) (A) (A) (A) (A) (A) (A)
                 (A) (A) (A) (A) (A) (A) (A) (A) (A) (A) (A) (A)
                 (A) (A) (A) (A) (A) (A) (A) (A) (A) (A) (A) (A)
                 (A) (A) (A) (A) (A) (A) (A) (A) (A) (A) (A) (A)
                 (A) (A)
 Beta  Orbitals:
       Occupied  (A) (A) (A) (A) (A) (A) (A) (A) (A) (A) (A) (A)
                 (A) (A) (A) (A) (A) (A) (A) (A) (A)
       Virtual   (A) (A) (A) (A) (A) (A) (A) (A) (A) (A) (A) (A)
                 (A) (A) (A) (A) (A) (A) (A) (A) (A) (A) (A) (A)
                 (A) (A) (A) (A) (A) (A) (A) (A) (A) (A) (A) (A)
                 (A) (A) (A) (A) (A) (A) (A) (A) (A) (A) (A) (A)
                 (A) (A) (A) (A) (A) (A) (A) (A) (A) (A) (A) (A)
                 (A) (A) (A) (A) (A) (A) (A) (A) (A) (A) (A) (A)
                 (A) (A) (A) (A) (A) (A) (A) (A) (A) (A) (A) (A)
                 (A) (A) (A) (A) (A) (A) (A) (A) (A) (A) (A) (A)
                 (A) (A) (A) (A) (A) (A) (A) (A) (A) (A) (A) (A)
                 (A) (A) (A) (A) (A) (A) (A) (A) (A) (A) (A) (A)
                 (A) (A) (A) (A) (A) (A) (A) (A) (A) (A) (A) (A)
                 (A) (A) (A) (A) (A) (A) (A) (A) (A) (A) (A) (A)
                 (A) (A) (A) (A) (A) (A) (A) (A) (A) (A) (A) (A)
                 (A) (A) (A) (A) (A) (A) (A) (A) (A) (A) (A) (A)
                 (A) (A) (A) (A) (A) (A) (A) (A) (A) (A) (A) (A)
                 (A) (A) (A) (A) (A) (A) (A) (A) (A) (A) (A) (A)
                 (A) (A) (A) (A) (A) (A) (A) (A) (A) (A) (A) (A)
                 (A) (A) (A) (A) (A) (A) (A) (A) (A) (A) (A) (A)
                 (A) (A) (A) (A) (A) (A) (A) (A) (A) (A) (A) (A)
                 (A) (A) (A) (A) (A) (A) (A) (A) (A) (A) (A) (A)
                 (A) (A) (A) (A) (A) (A) (A) (A) (A) (A) (A) (A)
                 (A) (A) (A)
 The electronic state is 2-A.
 Alpha  occ. eigenvalues --  -19.78537 -19.78292 -10.66023 -10.63884 -10.61316
 Alpha  occ. eigenvalues --   -1.27243  -1.01951  -0.89038  -0.77733  -0.72799
 Alpha  occ. eigenvalues --   -0.60861  -0.55812  -0.54430  -0.53140  -0.51013
 Alpha  occ. eigenvalues --   -0.47777  -0.45944  -0.43966  -0.42796  -0.37026
 Alpha  occ. eigenvalues --   -0.36516  -0.29856
 Alpha virt. eigenvalues --    0.07378   0.10054   0.10961   0.12692   0.14078
 Alpha virt. eigenvalues --    0.15144   0.15377   0.17831   0.17977   0.21171
 Alpha virt. eigenvalues --    0.24576   0.27433   0.29170   0.30679   0.31694
 Alpha virt. eigenvalues --    0.31865   0.33351   0.36742   0.38855   0.45618
 Alpha virt. eigenvalues --    0.48211   0.49277   0.50965   0.51791   0.51894
 Alpha virt. eigenvalues --    0.52122   0.53248   0.54481   0.55342   0.55907
 Alpha virt. eigenvalues --    0.56973   0.59298   0.60090   0.62740   0.66382
 Alpha virt. eigenvalues --    0.67986   0.70450   0.73897   0.77201   0.79633
 Alpha virt. eigenvalues --    0.81653   0.86061   0.89586   0.90019   0.92337
 Alpha virt. eigenvalues --    0.94910   0.96533   1.01056   1.01764   1.03512
 Alpha virt. eigenvalues --    1.04316   1.06570   1.09922   1.11243   1.12433
 Alpha virt. eigenvalues --    1.13641   1.14678   1.15729   1.16734   1.17731
 Alpha virt. eigenvalues --    1.21371   1.22636   1.23797   1.26797   1.27157
 Alpha virt. eigenvalues --    1.30527   1.33037   1.36353   1.37641   1.38953
 Alpha virt. eigenvalues --    1.40558   1.41463   1.44225   1.45056   1.48063
 Alpha virt. eigenvalues --    1.50441   1.53928   1.55238   1.61535   1.63096
 Alpha virt. eigenvalues --    1.65335   1.68124   1.74494   1.79285   1.86387
 Alpha virt. eigenvalues --    1.93046   1.99210   2.04453   2.11798   2.17853
 Alpha virt. eigenvalues --    2.21272   2.27711   2.30584   2.34432   2.37302
 Alpha virt. eigenvalues --    2.42511   2.43618   2.44102   2.48701   2.50581
 Alpha virt. eigenvalues --    2.53543   2.56417   2.62374   2.65637   2.70391
 Alpha virt. eigenvalues --    2.72081   2.74142   2.84077   2.84747   2.85005
 Alpha virt. eigenvalues --    2.87706   2.90602   2.91660   2.92480   2.96589
 Alpha virt. eigenvalues --    2.98586   3.01259   3.01969   3.03947   3.05671
 Alpha virt. eigenvalues --    3.08312   3.10687   3.12998   3.13584   3.15166
 Alpha virt. eigenvalues --    3.16389   3.17687   3.19357   3.20809   3.21320
 Alpha virt. eigenvalues --    3.22176   3.27311   3.28648   3.38511   3.39586
 Alpha virt. eigenvalues --    3.41033   3.42810   3.43366   3.44469   3.45642
 Alpha virt. eigenvalues --    3.50739   3.52845   3.53215   3.56129   3.58381
 Alpha virt. eigenvalues --    3.59646   3.60153   3.61101   3.63220   3.64387
 Alpha virt. eigenvalues --    3.66217   3.67516   3.76202   3.82051   3.83204
 Alpha virt. eigenvalues --    3.85332   3.87404   3.88854   3.89464   3.92371
 Alpha virt. eigenvalues --    3.93262   3.95857   3.96717   3.97975   4.00602
 Alpha virt. eigenvalues --    4.04845   4.07373   4.09341   4.10182   4.11935
 Alpha virt. eigenvalues --    4.14516   4.15837   4.18228   4.19006   4.20002
 Alpha virt. eigenvalues --    4.23512   4.25037   4.26701   4.29292   4.33825
 Alpha virt. eigenvalues --    4.35242   4.37019   4.37783   4.40004   4.43487
 Alpha virt. eigenvalues --    4.45210   4.49211   4.56380   4.60376   4.63395
 Alpha virt. eigenvalues --    4.66849   4.72171   4.80277   4.81500   4.86492
 Alpha virt. eigenvalues --    4.92063   4.94174   4.95964   4.97231   4.98794
 Alpha virt. eigenvalues --    5.00357   5.02635   5.04367   5.05488   5.12767
 Alpha virt. eigenvalues --    5.16285   5.24052   5.27338   5.30446   5.31720
 Alpha virt. eigenvalues --    5.34488   5.35635   5.36498   5.37233   5.40011
 Alpha virt. eigenvalues --    5.40204   5.41328   5.46915   5.49278   5.50175
 Alpha virt. eigenvalues --    5.57877   5.61360   5.62651   5.67979   5.77641
 Alpha virt. eigenvalues --    5.85954   5.92855   5.96952   6.00847   6.01541
 Alpha virt. eigenvalues --    6.05314   6.09233   6.09746   6.25822   6.32120
 Alpha virt. eigenvalues --    6.37942   6.40551   6.64400   6.74944   6.75924
 Alpha virt. eigenvalues --    6.82592   6.96218   7.05343   7.07033   7.17175
 Alpha virt. eigenvalues --    7.42069   7.43125   7.58310   7.73755   9.87313
 Alpha virt. eigenvalues --   10.58895  12.57810  13.42391  13.67286
  Beta  occ. eigenvalues --  -19.78393 -19.76676 -10.66031 -10.62623 -10.61373
  Beta  occ. eigenvalues --   -1.25381  -0.99043  -0.86987  -0.77310  -0.70454
  Beta  occ. eigenvalues --   -0.57477  -0.54706  -0.54089  -0.52477  -0.49001
  Beta  occ. eigenvalues --   -0.45517  -0.44495  -0.43027  -0.42429  -0.35292
  Beta  occ. eigenvalues --   -0.33489
  Beta virt. eigenvalues --   -0.04289   0.07538   0.10155   0.11369   0.13025
  Beta virt. eigenvalues --    0.14562   0.15274   0.15430   0.17985   0.18201
  Beta virt. eigenvalues --    0.21848   0.24960   0.27977   0.29933   0.30848
  Beta virt. eigenvalues --    0.31956   0.32308   0.34150   0.37188   0.39949
  Beta virt. eigenvalues --    0.45714   0.48656   0.50500   0.51114   0.52159
  Beta virt. eigenvalues --    0.52306   0.53274   0.53659   0.55141   0.56383
  Beta virt. eigenvalues --    0.57028   0.57612   0.60173   0.60587   0.63305
  Beta virt. eigenvalues --    0.66581   0.68312   0.70792   0.74928   0.77610
  Beta virt. eigenvalues --    0.80238   0.81835   0.86321   0.89671   0.90356
  Beta virt. eigenvalues --    0.92677   0.95015   0.96807   1.01293   1.02120
  Beta virt. eigenvalues --    1.04206   1.04459   1.06769   1.10245   1.11628
  Beta virt. eigenvalues --    1.12878   1.14221   1.15189   1.16444   1.16954
  Beta virt. eigenvalues --    1.17870   1.21849   1.23127   1.24372   1.27079
  Beta virt. eigenvalues --    1.27562   1.31033   1.33252   1.36608   1.37922
  Beta virt. eigenvalues --    1.38985   1.40727   1.41623   1.44738   1.45724
  Beta virt. eigenvalues --    1.48457   1.51037   1.54337   1.55983   1.61821
  Beta virt. eigenvalues --    1.63594   1.65645   1.68829   1.75289   1.79655
  Beta virt. eigenvalues --    1.89098   1.93995   1.99768   2.05461   2.12115
  Beta virt. eigenvalues --    2.20012   2.21506   2.28598   2.31227   2.34937
  Beta virt. eigenvalues --    2.37694   2.43091   2.44185   2.44824   2.49165
  Beta virt. eigenvalues --    2.50871   2.53739   2.57193   2.64030   2.66180
  Beta virt. eigenvalues --    2.70544   2.72726   2.74352   2.84612   2.84999
  Beta virt. eigenvalues --    2.85605   2.88606   2.90815   2.91919   2.92778
  Beta virt. eigenvalues --    2.97389   2.99316   3.02063   3.02290   3.04292
  Beta virt. eigenvalues --    3.06739   3.08817   3.11189   3.13125   3.13846
  Beta virt. eigenvalues --    3.15451   3.16594   3.17879   3.19729   3.21115
  Beta virt. eigenvalues --    3.22280   3.22770   3.28278   3.30251   3.38904
  Beta virt. eigenvalues --    3.40335   3.41150   3.42899   3.44047   3.45475
  Beta virt. eigenvalues --    3.46142   3.50878   3.53003   3.53667   3.56357
  Beta virt. eigenvalues --    3.59110   3.60018   3.60359   3.61539   3.63606
  Beta virt. eigenvalues --    3.64594   3.66599   3.67810   3.76498   3.82264
  Beta virt. eigenvalues --    3.83630   3.85492   3.87446   3.88962   3.89559
  Beta virt. eigenvalues --    3.92599   3.93512   3.96031   3.96791   3.98307
  Beta virt. eigenvalues --    4.00788   4.04872   4.07521   4.09516   4.10224
  Beta virt. eigenvalues --    4.12204   4.14726   4.16143   4.18372   4.19191
  Beta virt. eigenvalues --    4.20345   4.23810   4.25288   4.27015   4.29531
  Beta virt. eigenvalues --    4.34454   4.35373   4.37313   4.38105   4.40511
  Beta virt. eigenvalues --    4.43963   4.45509   4.49417   4.57462   4.61014
  Beta virt. eigenvalues --    4.63945   4.67818   4.72770   4.80746   4.81652
  Beta virt. eigenvalues --    4.87254   4.92413   4.94287   4.96693   4.97519
  Beta virt. eigenvalues --    4.99028   5.00513   5.02895   5.04633   5.05913
  Beta virt. eigenvalues --    5.13482   5.17189   5.25089   5.27702   5.30721
  Beta virt. eigenvalues --    5.32160   5.35033   5.35901   5.36808   5.37593
  Beta virt. eigenvalues --    5.40151   5.41042   5.41672   5.47183   5.49505
  Beta virt. eigenvalues --    5.50388   5.58625   5.61688   5.63134   5.68654
  Beta virt. eigenvalues --    5.78252   5.87568   5.92928   5.97274   6.01288
  Beta virt. eigenvalues --    6.02580   6.05749   6.09586   6.10382   6.26174
  Beta virt. eigenvalues --    6.34249   6.38530   6.42020   6.65403   6.76745
  Beta virt. eigenvalues --    6.78664   6.83878   6.97990   7.06299   7.08393
  Beta virt. eigenvalues --    7.19440   7.42637   7.44910   7.60163   7.74350
  Beta virt. eigenvalues --    9.88203  10.59945  12.58809  13.42394  13.67377
          Condensed to atoms (all electrons):
               1          2          3          4          5          6
     1  C    4.823722   0.399250   0.406120   0.409068   0.313453  -0.029177
     2  H    0.399250   0.603066  -0.031111  -0.034369  -0.036385  -0.002844
     3  H    0.406120  -0.031111   0.571373  -0.026204  -0.031154  -0.005098
     4  H    0.409068  -0.034369  -0.026204   0.572896  -0.035709   0.006121
     5  C    0.313453  -0.036385  -0.031154  -0.035709   5.130429   0.404111
     6  H   -0.029177  -0.002844  -0.005098   0.006121   0.404111   0.542405
     7  H   -0.038945  -0.003723   0.006418  -0.004223   0.401656  -0.030200
     8  C    0.000058  -0.000043   0.000079  -0.000797  -0.003397   0.000093
     9  H    0.000487  -0.000015   0.000021  -0.001636  -0.000397  -0.000234
    10  H   -0.000103  -0.000009  -0.000029   0.000083   0.000351   0.000002
    11  H    0.000043   0.000003  -0.000014   0.000337  -0.000260   0.000034
    12  O   -0.002425   0.000162  -0.000795   0.010344   0.003631   0.000544
    13  O   -0.001266  -0.000080   0.002887  -0.001584  -0.076344   0.000313
    14  H   -0.008840   0.002782  -0.002459  -0.004263   0.216302  -0.009261
               7          8          9         10         11         12
     1  C   -0.038945   0.000058   0.000487  -0.000103   0.000043  -0.002425
     2  H   -0.003723  -0.000043  -0.000015  -0.000009   0.000003   0.000162
     3  H    0.006418   0.000079   0.000021  -0.000029  -0.000014  -0.000795
     4  H   -0.004223  -0.000797  -0.001636   0.000083   0.000337   0.010344
     5  C    0.401656  -0.003397  -0.000397   0.000351  -0.000260   0.003631
     6  H   -0.030200   0.000093  -0.000234   0.000002   0.000034   0.000544
     7  H    0.563795   0.000282  -0.000594  -0.000091  -0.000051  -0.000133
     8  C    0.000282   4.599012   0.391848   0.395180   0.412594   0.303173
     9  H   -0.000594   0.391848   0.686141  -0.034877  -0.059260  -0.050531
    10  H   -0.000091   0.395180  -0.034877   0.593770  -0.028834  -0.026385
    11  H   -0.000051   0.412594  -0.059260  -0.028834   0.616183  -0.037851
    12  O   -0.000133   0.303173  -0.050531  -0.026385  -0.037851   7.947074
    13  O   -0.000305  -0.045675  -0.002213   0.006863   0.003804   0.071701
    14  H   -0.007804   0.001760   0.004818  -0.000587   0.000382  -0.028050
              13         14
     1  C   -0.001266  -0.008840
     2  H   -0.000080   0.002782
     3  H    0.002887  -0.002459
     4  H   -0.001584  -0.004263
     5  C   -0.076344   0.216302
     6  H    0.000313  -0.009261
     7  H   -0.000305  -0.007804
     8  C   -0.045675   0.001760
     9  H   -0.002213   0.004818
    10  H    0.006863  -0.000587
    11  H    0.003804   0.000382
    12  O    0.071701  -0.028050
    13  O    8.069861   0.198961
    14  H    0.198961   0.421303
          Atomic-Atomic Spin Densities.
               1          2          3          4          5          6
     1  C   -0.026300   0.008533   0.003140   0.004643  -0.029630   0.001151
     2  H    0.008533   0.059050  -0.004328  -0.004494  -0.015153  -0.001801
     3  H    0.003140  -0.004328   0.005914   0.001292  -0.003980   0.000910
     4  H    0.004643  -0.004494   0.001292   0.009056  -0.004359   0.000044
     5  C   -0.029630  -0.015153  -0.003980  -0.004359   0.708875   0.002975
     6  H    0.001151  -0.001801   0.000910   0.000044   0.002975  -0.022604
     7  H    0.002386  -0.002258   0.000194   0.000782   0.001310   0.003561
     8  C   -0.000285   0.000046  -0.000024  -0.000246   0.000872  -0.000038
     9  H    0.000544  -0.000108   0.000041   0.000442  -0.004570   0.000150
    10  H   -0.000022   0.000004  -0.000000  -0.000039   0.000121  -0.000002
    11  H   -0.000102   0.000009  -0.000009  -0.000063   0.001160  -0.000028
    12  O   -0.002534   0.000246  -0.000300  -0.001515   0.013193  -0.000272
    13  O    0.007505  -0.000728   0.001023   0.001201  -0.090247   0.002509
    14  H   -0.000968   0.000471  -0.000593   0.000547   0.063042   0.002159
               7          8          9         10         11         12
     1  C    0.002386  -0.000285   0.000544  -0.000022  -0.000102  -0.002534
     2  H   -0.002258   0.000046  -0.000108   0.000004   0.000009   0.000246
     3  H    0.000194  -0.000024   0.000041  -0.000000  -0.000009  -0.000300
     4  H    0.000782  -0.000246   0.000442  -0.000039  -0.000063  -0.001515
     5  C    0.001310   0.000872  -0.004570   0.000121   0.001160   0.013193
     6  H    0.003561  -0.000038   0.000150  -0.000002  -0.000028  -0.000272
     7  H   -0.022758  -0.000199   0.001089  -0.000008  -0.000150  -0.000858
     8  C   -0.000199  -0.005724   0.003866   0.000650  -0.002664   0.000971
     9  H    0.001089   0.003866   0.001989  -0.000824  -0.001256  -0.001011
    10  H   -0.000008   0.000650  -0.000824  -0.001829   0.001080   0.000100
    11  H   -0.000150  -0.002664  -0.001256   0.001080   0.003829  -0.000532
    12  O   -0.000858   0.000971  -0.001011   0.000100  -0.000532   0.049586
    13  O    0.003634  -0.001993   0.003705  -0.000212  -0.000323  -0.041379
    14  H    0.001219   0.001249  -0.003387   0.000068   0.001341   0.009717
              13         14
     1  C    0.007505  -0.000968
     2  H   -0.000728   0.000471
     3  H    0.001023  -0.000593
     4  H    0.001201   0.000547
     5  C   -0.090247   0.063042
     6  H    0.002509   0.002159
     7  H    0.003634   0.001219
     8  C   -0.001993   0.001249
     9  H    0.003705  -0.003387
    10  H   -0.000212   0.000068
    11  H   -0.000323   0.001341
    12  O   -0.041379   0.009717
    13  O    0.578011  -0.048650
    14  H   -0.048650  -0.102603
 Mulliken charges and spin densities:
               1          2
     1  C   -0.271445  -0.031940
     2  H    0.103315   0.039489
     3  H    0.109967   0.003282
     4  H    0.109935   0.007289
     5  C   -0.286286   0.643608
     6  H    0.123191  -0.011287
     7  H    0.113917  -0.012055
     8  C   -0.054167  -0.003518
     9  H    0.066444   0.000669
    10  H    0.094668  -0.000912
    11  H    0.092891   0.002291
    12  O   -0.190461   0.025414
    13  O   -0.226924   0.414057
    14  H    0.214955  -0.076387
 Sum of Mulliken charges =  -0.00000   1.00000
 Mulliken charges and spin densities with hydrogens summed into heavy atoms:
               1          2
     1  C    0.051773   0.018120
     5  C   -0.049178   0.620266
     8  C    0.199836  -0.001469
    12  O   -0.190461   0.025414
    13  O   -0.011969   0.337669
 APT charges:
               1
     1  C   -0.066157
     2  H    0.000958
     3  H    0.004212
     4  H    0.015912
     5  C    0.417295
     6  H   -0.049996
     7  H   -0.063927
     8  C    0.441409
     9  H   -0.042883
    10  H   -0.007256
    11  H   -0.031131
    12  O   -0.422063
    13  O    0.122415
    14  H   -0.318788
 Sum of APT charges =  -0.00000
 APT charges with hydrogens summed into heavy atoms:
               1
     1  C   -0.045076
     5  C    0.303372
     8  C    0.360139
    12  O   -0.422063
    13  O   -0.196373
 Electronic spatial extent (au):  <R**2>=            627.4772
 Charge=             -0.0000 electrons
 Dipole moment (field-independent basis, Debye):
    X=             -0.8802    Y=             -1.2379    Z=              1.8607  Tot=              2.4020
 Quadrupole moment (field-independent basis, Debye-Ang):
   XX=            -28.2088   YY=            -33.3005   ZZ=            -33.4001
   XY=             -2.4497   XZ=              1.7905   YZ=              0.1417
 Traceless Quadrupole moment (field-independent basis, Debye-Ang):
   XX=              3.4277   YY=             -1.6640   ZZ=             -1.7636
   XY=             -2.4497   XZ=              1.7905   YZ=              0.1417
 Octapole moment (field-independent basis, Debye-Ang**2):
  XXX=             12.6263  YYY=              0.9131  ZZZ=             -1.9833  XYY=              1.8542
  XXY=             -0.8441  XXZ=              1.4865  XZZ=              0.9707  YZZ=              0.6346
  YYZ=             -0.4271  XYZ=             -0.0078
 Hexadecapole moment (field-independent basis, Debye-Ang**3):
 XXXX=           -562.8618 YYYY=           -137.4745 ZZZZ=           -102.4215 XXXY=             -3.6452
 XXXZ=              1.4398 YYYX=             -7.3413 YYYZ=              0.8117 ZZZX=             -0.9923
 ZZZY=             -2.6051 XXYY=           -113.7937 XXZZ=           -117.0712 YYZZ=            -42.3258
 XXYZ=             -0.7640 YYXZ=             -2.0805 ZZXY=              0.1273
 N-N= 1.890117175281D+02 E-N=-1.009967886353D+03  KE= 2.683996483863D+02
  Exact polarizability:  83.948  -1.040  49.654  -4.971   0.431  46.066
 Approx polarizability:  68.501  -1.215  56.975  -5.928  -0.184  52.055
                          Isotropic Fermi Contact Couplings
        Atom                 a.u.       MegaHertz       Gauss      10(-4) cm-1
     1  C(13)             -0.01188     -13.36083      -4.76748      -4.45669
     2  H(1)               0.02157      96.40328      34.39909      32.15667
     3  H(1)               0.00221       9.87118       3.52228       3.29267
     4  H(1)               0.00552      24.66926       8.80260       8.22878
     5  C(13)              0.09687     108.90236      38.85907      36.32592
     6  H(1)              -0.00370     -16.54946      -5.90526      -5.52030
     7  H(1)              -0.00428     -19.11086      -6.81923      -6.37470
     8  C(13)             -0.00347      -3.89854      -1.39110      -1.30041
     9  H(1)               0.00224      10.00720       3.57082       3.33804
    10  H(1)              -0.00011      -0.51122      -0.18241      -0.17052
    11  H(1)               0.00059       2.61738       0.93395       0.87306
    12  O(17)              0.01486      -9.01104      -3.21536      -3.00576
    13  O(17)              0.04434     -26.87629      -9.59013      -8.96497
    14  H(1)              -0.02321    -103.72842     -37.01288     -34.60008
 --------------------------------------------------------
       Center         ----  Spin Dipole Couplings  ----
                      3XX-RR        3YY-RR        3ZZ-RR
 --------------------------------------------------------
     1   Atom        0.015670     -0.002305     -0.013365
     2   Atom        0.002832      0.000486     -0.003317
     3   Atom       -0.001127     -0.005721      0.006848
     4   Atom       -0.005736      0.010829     -0.005093
     5   Atom        0.510027     -0.282884     -0.227143
     6   Atom        0.008890      0.030301     -0.039191
     7   Atom       -0.000645     -0.035324      0.035969
     8   Atom        0.002473     -0.001433     -0.001040
     9   Atom        0.000684     -0.001105      0.000421
    10   Atom        0.001764      0.001170     -0.002933
    11   Atom        0.005678     -0.003639     -0.002040
    12   Atom        0.259944     -0.206211     -0.053733
    13   Atom        0.868299     -0.417888     -0.450411
    14   Atom        0.165625     -0.098645     -0.066981
 --------------------------------------------------------
                        XY            XZ            YZ
 --------------------------------------------------------
     1   Atom        0.020557      0.003867      0.008392
     2   Atom        0.008494     -0.000720      0.002407
     3   Atom        0.003192      0.006697      0.004927
     4   Atom        0.000033     -0.001028      0.006805
     5   Atom        0.271214     -0.350909     -0.109853
     6   Atom       -0.025474     -0.012577     -0.010332
     7   Atom        0.002764      0.009603     -0.028111
     8   Atom       -0.007117      0.003252     -0.003304
     9   Atom       -0.004054      0.003704     -0.005490
    10   Atom       -0.004394      0.001190     -0.001653
    11   Atom       -0.003065      0.004749     -0.001388
    12   Atom        0.123097     -0.233321     -0.085431
    13   Atom        0.920923     -0.894027     -0.461123
    14   Atom        0.077206     -0.128429     -0.034170
 --------------------------------------------------------


 ---------------------------------------------------------------------------------
              Anisotropic Spin Dipole Couplings in Principal Axis System
 ---------------------------------------------------------------------------------

       Atom             a.u.   MegaHertz   Gauss  10(-4) cm-1        Axes

              Baa    -0.0201    -2.700    -0.963    -0.901 -0.3186  0.6791 -0.6612
     1 C(13)  Bbb    -0.0104    -1.397    -0.498    -0.466 -0.4872  0.4810  0.7288
              Bcc     0.0305     4.097     1.462     1.367  0.8131  0.5544  0.1776
 
              Baa    -0.0080    -4.289    -1.530    -1.431 -0.5707  0.6931 -0.4404
     2 H(1)   Bbb    -0.0023    -1.214    -0.433    -0.405 -0.3457  0.2836  0.8945
              Bcc     0.0103     5.503     1.964     1.836  0.7448  0.6627  0.0777
 
              Baa    -0.0076    -4.077    -1.455    -1.360 -0.2530  0.9456 -0.2046
     3 H(1)   Bbb    -0.0049    -2.612    -0.932    -0.871  0.8425  0.1113 -0.5271
              Bcc     0.0125     6.689     2.387     2.231  0.4757  0.3058  0.8248
 
              Baa    -0.0080    -4.280    -1.527    -1.428  0.3932 -0.3128  0.8646
     4 H(1)   Bbb    -0.0053    -2.841    -1.014    -0.948  0.9193  0.1512 -0.3634
              Bcc     0.0133     7.121     2.541     2.375 -0.0171  0.9377  0.3470
 
              Baa    -0.3685   -49.452   -17.646   -16.495  0.1188  0.6194  0.7761
     5 C(13)  Bbb    -0.3660   -49.113   -17.525   -16.382 -0.4357  0.7348 -0.5198
              Bcc     0.7345    98.565    35.170    32.878  0.8922  0.2764 -0.3571
 
              Baa    -0.0461   -24.601    -8.778    -8.206  0.3170  0.2301  0.9201
     6 H(1)   Bbb    -0.0012    -0.615    -0.219    -0.205  0.7738  0.4982 -0.3912
              Bcc     0.0473    25.216     8.998     8.411 -0.5484  0.8360 -0.0201
 
              Baa    -0.0458   -24.448    -8.724    -8.155 -0.1285  0.9331  0.3358
     7 H(1)   Bbb    -0.0013    -0.697    -0.249    -0.232  0.9771  0.1771 -0.1182
              Bcc     0.0471    25.145     8.972     8.387  0.1697 -0.3129  0.9345
 
              Baa    -0.0070    -0.933    -0.333    -0.311  0.5641  0.8131  0.1440
     8 C(13)  Bbb    -0.0029    -0.387    -0.138    -0.129 -0.3988  0.1155  0.9097
              Bcc     0.0098     1.321     0.471     0.440  0.7230 -0.5706  0.3894
 
              Baa    -0.0060    -3.192    -1.139    -1.065  0.1538  0.7924  0.5903
     9 H(1)   Bbb    -0.0029    -1.533    -0.547    -0.511  0.8166  0.2344 -0.5275
              Bcc     0.0089     4.725     1.686     1.576  0.5564 -0.5632  0.6110
 
              Baa    -0.0036    -1.917    -0.684    -0.639  0.2167  0.4924  0.8430
    10 H(1)   Bbb    -0.0027    -1.447    -0.516    -0.483  0.6724  0.5507 -0.4946
              Bcc     0.0063     3.363     1.200     1.122  0.7078 -0.6739  0.2118
 
              Baa    -0.0046    -2.433    -0.868    -0.812  0.3281  0.9392 -0.1011
    11 H(1)   Bbb    -0.0043    -2.287    -0.816    -0.763 -0.3624  0.2239  0.9047
              Bcc     0.0088     4.719     1.684     1.574  0.8724 -0.2602  0.4138
 
              Baa    -0.2459    17.792     6.348     5.935 -0.0821  0.9439  0.3199
    12 O(17)  Bbb    -0.1738    12.574     4.487     4.194  0.5114 -0.2356  0.8264
              Bcc     0.4197   -30.366   -10.835   -10.129  0.8554  0.2315 -0.4634
 
              Baa    -0.9034    65.371    23.326    21.805  0.5669 -0.3821  0.7298
    13 O(17)  Bbb    -0.8950    64.761    23.108    21.602 -0.1515  0.8224  0.5483
              Bcc     1.7984  -130.132   -46.434   -43.407  0.8097  0.4214 -0.4083
 
              Baa    -0.1239   -66.130   -23.597   -22.059  0.4085 -0.0140  0.9126
    14 H(1)   Bbb    -0.1195   -63.750   -22.748   -21.265 -0.2132  0.9708  0.1103
              Bcc     0.2434   129.880    46.344    43.323  0.8875  0.2396 -0.3936
 

 ---------------------------------------------------------------------------------

 Calling FoFJK, ICntrl=  10100127 FMM=F ISym2X=0 I1Cent= 0 IOpClX= 1 NMat=1 NMatS=1 NMatT=0.
 ***** Axes restored to original set *****
 -------------------------------------------------------------------
 Center     Atomic                   Forces (Hartrees/Bohr)
 Number     Number              X              Y              Z
 -------------------------------------------------------------------
      1        6           0.000029149    0.000082572   -0.000022149
      2        1          -0.000000938   -0.000000225    0.000000925
      3        1           0.000000811    0.000000503    0.000000310
      4        1           0.000000534    0.000000721    0.000000189
      5        6          -0.000039814   -0.000097801    0.000038407
      6        1          -0.000001305   -0.000002569   -0.000004296
      7        1           0.000006682   -0.000003404    0.000003129
      8        6           0.000003770   -0.000002315    0.000001145
      9        1          -0.000004245   -0.000002118   -0.000000701
     10        1          -0.000000193   -0.000000049    0.000001395
     11        1          -0.000000911    0.000000297    0.000000740
     12        8          -0.000035829   -0.000039706    0.000074910
     13        8           0.000043917    0.000052314   -0.000086577
     14        1          -0.000001628    0.000011780   -0.000007428
 -------------------------------------------------------------------
 Cartesian Forces:  Max     0.000097801 RMS     0.000031531
 FormGI is forming the generalized inverse of G from B-inverse, IUseBI=4.

 GradGradGradGradGradGradGradGradGradGradGradGradGradGradGradGradGradGrad
 Berny optimization.
 Internal  Forces:  Max     0.000123349 RMS     0.000024576
 Search for a saddle point.
 Step number   1 out of a maximum of  100
 All quantities printed in internal units (Hartrees-Bohrs-Radians)
 Swapping is turned off.
 Second derivative matrix not updated -- analytic derivatives used.
 ITU=  0
     Eigenvalues ---   -0.07333   0.00060   0.00126   0.00610   0.01579
     Eigenvalues ---    0.02430   0.03021   0.03212   0.03843   0.04393
     Eigenvalues ---    0.04426   0.06813   0.08496   0.08524   0.09173
     Eigenvalues ---    0.09747   0.12063   0.13066   0.14482   0.16123
     Eigenvalues ---    0.16352   0.16798   0.18024   0.18551   0.25810
     Eigenvalues ---    0.31251   0.31948   0.33029   0.33518   0.34112
     Eigenvalues ---    0.34444   0.34915   0.34935   0.35290   0.35533
     Eigenvalues ---    0.40422
 Eigenvectors required to have negative eigenvalues:
                          R7        R13       R12       D4        A20
   1                    0.68912  -0.66573   0.15106  -0.08074  -0.07839
                          D8        D1        D2        D7        D5
   1                    0.07790  -0.07255   0.07125  -0.06590   0.06306
 RFO step:  Lambda0=7.219997725D-10 Lambda=-2.88880387D-05.
 Linear search not attempted -- option 19 set.
 Iteration  1 RMS(Cart)=  0.07936583 RMS(Int)=  0.00213959
 Iteration  2 RMS(Cart)=  0.00285677 RMS(Int)=  0.00001148
 Iteration  3 RMS(Cart)=  0.00000507 RMS(Int)=  0.00001117
 Iteration  4 RMS(Cart)=  0.00000000 RMS(Int)=  0.00001117
 Variable       Old X    -DE/DX   Delta X   Delta X   Delta X     New X
                                 (Linear)    (Quad)   (Total)
    R1        2.06792   0.00000   0.00000   0.00015   0.00015   2.06807
    R2        2.05595   0.00000   0.00000   0.00007   0.00007   2.05602
    R3        2.05788   0.00000   0.00000  -0.00018  -0.00018   2.05770
    R4        2.83376   0.00000   0.00000  -0.00025  -0.00025   2.83351
    R5        2.05133   0.00000   0.00000  -0.00002  -0.00002   2.05131
    R6        2.05133  -0.00000   0.00000  -0.00012  -0.00012   2.05122
    R7        2.57074  -0.00001   0.00000   0.00294   0.00294   2.57368
    R8        2.06229   0.00000   0.00000   0.00023   0.00023   2.06252
    R9        2.05621   0.00000   0.00000   0.00002   0.00002   2.05623
   R10        2.05710  -0.00000   0.00000  -0.00005  -0.00005   2.05705
   R11        2.68395  -0.00000   0.00000  -0.00007  -0.00007   2.68388
   R12        2.66286  -0.00000   0.00000  -0.00011  -0.00011   2.66275
   R13        2.20232   0.00000   0.00000  -0.00140  -0.00140   2.20092
    A1        1.88084  -0.00000   0.00000  -0.00027  -0.00027   1.88057
    A2        1.87701  -0.00000   0.00000  -0.00039  -0.00039   1.87662
    A3        1.93381   0.00000   0.00000  -0.00071  -0.00071   1.93310
    A4        1.88486  -0.00000   0.00000  -0.00123  -0.00123   1.88363
    A5        1.94304  -0.00000   0.00000  -0.00002  -0.00002   1.94302
    A6        1.94162  -0.00000   0.00000   0.00252   0.00252   1.94413
    A7        2.03433   0.00006   0.00000  -0.00139  -0.00142   2.03291
    A8        2.02962  -0.00006   0.00000   0.00073   0.00074   2.03036
    A9        1.81919   0.00001   0.00000   0.00296   0.00296   1.82214
   A10        1.96849  -0.00000   0.00000  -0.00002  -0.00000   1.96849
   A11        1.76777  -0.00000   0.00000  -0.00440  -0.00439   1.76338
   A12        1.79619  -0.00000   0.00000   0.00222   0.00222   1.79840
   A13        1.91809   0.00000   0.00000  -0.00006  -0.00007   1.91803
   A14        1.91617   0.00000   0.00000  -0.00004  -0.00004   1.91613
   A15        1.93525  -0.00001   0.00000  -0.00025  -0.00025   1.93500
   A16        1.92487   0.00000   0.00000   0.00014   0.00014   1.92501
   A17        1.83734  -0.00000   0.00000   0.00021   0.00021   1.83755
   A18        1.93095   0.00000   0.00000   0.00002   0.00002   1.93096
   A19        1.88038  -0.00001   0.00000  -0.00026  -0.00026   1.88012
   A20        1.81615  -0.00000   0.00000   0.00132   0.00132   1.81747
   A21        3.12728  -0.00001   0.00000  -0.00395  -0.00395   3.12333
   A22        3.04049   0.00000   0.00000   0.00886   0.00885   3.04935
    D1       -1.27996   0.00001   0.00000   0.00886   0.00886  -1.27110
    D2        1.10895   0.00001   0.00000   0.00801   0.00801   1.11696
    D3        3.07219  -0.00002   0.00000   0.01295   0.01296   3.08515
    D4        0.81290   0.00001   0.00000   0.00803   0.00803   0.82093
    D5       -3.08138   0.00001   0.00000   0.00718   0.00718  -3.07420
    D6       -1.11814  -0.00002   0.00000   0.01212   0.01213  -1.10601
    D7        2.91613   0.00001   0.00000   0.00817   0.00816   2.92429
    D8       -0.97815   0.00001   0.00000   0.00732   0.00731  -0.97084
    D9        0.98509  -0.00002   0.00000   0.01225   0.01226   0.99736
   D10       -0.76702   0.00012   0.00000   0.11787   0.11792  -0.64910
   D11       -2.88015   0.00006   0.00000   0.12053   0.12049  -2.75966
   D12        1.34695   0.00006   0.00000   0.12270   0.12269   1.46964
   D13        1.13921  -0.00000   0.00000   0.00332   0.00332   1.14253
   D14       -3.07049  -0.00000   0.00000   0.00323   0.00323  -3.06726
   D15       -0.99119   0.00000   0.00000   0.00353   0.00353  -0.98766
   D16       -1.60353   0.00000   0.00000   0.00646   0.00646  -1.59707
         Item               Value     Threshold  Converged?
 Maximum Force            0.000123     0.000450     YES
 RMS     Force            0.000025     0.000300     YES
 Maximum Displacement     0.165082     0.001800     NO 
 RMS     Displacement     0.080016     0.001200     NO 
 Predicted change in Energy=-1.508570D-05
 GradGradGradGradGradGradGradGradGradGradGradGradGradGradGradGradGradGrad

                          Input orientation:                          
 ---------------------------------------------------------------------
 Center     Atomic      Atomic             Coordinates (Angstroms)
 Number     Number       Type             X           Y           Z
 ---------------------------------------------------------------------
      1          6           0       -2.053816   -0.096639    0.784585
      2          1           0       -3.045244    0.345754    0.646687
      3          1           0       -2.125398   -0.827203    1.587635
      4          1           0       -1.383512    0.696588    1.111947
      5          6           0       -1.572633   -0.729254   -0.486853
      6          1           0       -2.053429   -1.658087   -0.777416
      7          1           0       -1.409236   -0.060104   -1.325755
      8          6           0        1.875326    0.494528    0.182321
      9          1           0        1.206274    0.961484   -0.542633
     10          1           0        2.251541    1.244198    0.875459
     11          1           0        2.701489    0.011566   -0.336455
     12          8           0        1.174267   -0.441819    0.987849
     13          8           0        0.747102   -1.492209    0.151379
     14          1           0       -0.316642   -1.166559   -0.193398
 ---------------------------------------------------------------------
                    Distance matrix (angstroms):
                    1          2          3          4          5
     1  C    0.000000
     2  H    1.094375   0.000000
     3  H    1.087997   1.762762   0.000000
     4  H    1.088890   1.760939   1.760288   0.000000
     5  C    1.499431   2.146890   2.149103   2.150571   0.000000
     6  H    2.208612   2.650876   2.507790   3.092406   1.085505
     7  H    2.206888   2.594566   3.096639   2.552575   1.085458
     8  C    4.018751   4.944672   4.441585   3.394858   3.719390
     9  H    3.675503   4.457468   4.340218   3.084607   3.253311
    10  H    4.510233   5.377311   4.894436   3.683669   4.513836
    11  H    4.886857   5.839794   5.263506   4.387979   4.340455
    12  O    3.252843   4.305919   3.375804   2.802429   3.130947
    13  O    3.192759   4.243269   3.279683   3.202037   2.524007
    14  H    2.262511   3.230805   2.561023   2.512659   1.361934
                    6          7          8          9         10
     6  H    0.000000
     7  H    1.808096   0.000000
     8  C    4.581481   3.656536   0.000000
     9  H    4.188430   2.915101   1.091438   0.000000
    10  H    5.448672   4.466300   1.088109   1.784235   0.000000
    11  H    5.058798   4.228701   1.088543   1.783402   1.786217
    12  O    3.874725   3.488977   1.420248   2.076695   2.003947
    13  O    2.955191   2.980377   2.284944   2.590966   3.205550
    14  H    1.897131   1.923600   2.775806   2.640039   3.681001
                   11         12         13         14
    11  H    0.000000
    12  O    2.071653   0.000000
    13  O    2.513752   1.409068   0.000000
    14  H    3.243078   2.035535   1.164676   0.000000
 Stoichiometry    C3H9O2(2)
 Framework group  C1[X(C3H9O2)]
 Deg. of freedom    36
 Full point group                 C1      NOp   1
 Largest Abelian subgroup         C1      NOp   1
 Largest concise Abelian subgroup C1      NOp   1
                         Standard orientation:                         
 ---------------------------------------------------------------------
 Center     Atomic      Atomic             Coordinates (Angstroms)
 Number     Number       Type             X           Y           Z
 ---------------------------------------------------------------------
      1          6           0       -2.005327   -0.706850   -0.312082
      2          1           0       -2.954706   -1.157696   -0.007001
      3          1           0       -2.110454   -0.378738   -1.344084
      4          1           0       -1.247459   -1.488229   -0.284422
      5          6           0       -1.645700    0.435973    0.589537
      6          1           0       -2.226546    1.345582    0.473126
      7          1           0       -1.456834    0.187957    1.629265
      8          6           0        1.931053   -0.579030    0.487247
      9          1           0        1.277895   -0.778769    1.338555
     10          1           0        2.408937   -1.501176    0.162813
     11          1           0        2.682344    0.158368    0.764256
     12          8           0        1.180304   -0.132364   -0.632561
     13          8           0        0.616243    1.115497   -0.300674
     14          1           0       -0.425704    0.847073    0.145158
 ---------------------------------------------------------------------
 Rotational constants (GHZ):           7.8134872           2.3644978           2.1757054
 Standard basis: CC-pVTZ (5D, 7F)
 There are   310 symmetry adapted cartesian basis functions of A   symmetry.
 There are   276 symmetry adapted basis functions of A   symmetry.
   276 basis functions,   413 primitive gaussians,   310 cartesian basis functions
    22 alpha electrons       21 beta electrons
       nuclear repulsion energy       189.3254056343 Hartrees.
 NAtoms=   14 NActive=   14 NUniq=   14 SFac= 1.00D+00 NAtFMM=   60 NAOKFM=F Big=F
 Integral buffers will be    131072 words long.
 Raffenetti 2 integral format.
 Two-electron integral symmetry is turned on.
 Nuclear repulsion after empirical dispersion term =      189.3196031818 Hartrees.
 One-electron integrals computed using PRISM.
 NBasis=   276 RedAO= T EigKep=  1.07D-03  NBF=   276
 NBsUse=   276 1.00D-06 EigRej= -1.00D+00 NBFU=   276
 Initial guess from the checkpoint file:  "/localscratch/353444/Gau-95092.chk"
 B after Tr=     0.000000    0.000000   -0.000000
         Rot=    0.999982    0.000102    0.005982   -0.000694 Ang=   0.69 deg.
 Initial guess <Sx>= 0.0000 <Sy>= 0.0000 <Sz>= 0.5000 <S**2>= 0.7683 S= 0.5091
 ExpMin= 1.03D-01 ExpMax= 1.53D+04 ExpMxC= 5.22D+02 IAcc=3 IRadAn=         5 AccDes= 0.00D+00
 Harris functional with IExCor=  419 and IRadAn=       5 diagonalized for initial guess.
 HarFok:  IExCor=  419 AccDes= 0.00D+00 IRadAn=         5 IDoV= 1 UseB2=F ITyADJ=14
 ICtDFT=  3500011 ScaDFX=  1.000000  1.000000  1.000000  1.000000
 FoFCou: FMM=F IPFlag=           0 FMFlag=      100000 FMFlg1=           0
         NFxFlg=           0 DoJE=T BraDBF=F KetDBF=T FulRan=T
         wScrn=  0.000000 ICntrl=       500 IOpCl=  0 I1Cent=   200000004 NGrid=           0
         NMat0=    1 NMatS0=      1 NMatT0=    0 NMatD0=    1 NMtDS0=    0 NMtDT0=    0
 Petite list used in FoFCou.
 Requested convergence on RMS density matrix=1.00D-08 within 128 cycles.
 Requested convergence on MAX density matrix=1.00D-06.
 Requested convergence on             energy=1.00D-06.
 No special actions if energy rises.
 Integral accuracy reduced to 1.0D-05 until final iterations.
 Initial convergence to 1.0D-05 achieved.  Increase integral accuracy.
 SCF Done:  E(UB2PLYPD3) =  -269.557871075     A.U. after   14 cycles
            NFock= 14  Conv=0.65D-08     -V/T= 2.0043
 <Sx>= 0.0000 <Sy>= 0.0000 <Sz>= 0.5000 <S**2>= 0.7683 S= 0.5091
 <L.S>=  0.00000000000    
 Annihilation of the first spin contaminant:
 S**2 before annihilation     0.7683,   after     0.7501
 DoSCS=T DFT=T ScalE2(SS,OS)=  0.270000  0.270000
 ExpMin= 1.03D-01 ExpMax= 1.53D+04 ExpMxC= 5.22D+02 IAcc=3 IRadAn=         5 AccDes= 0.00D+00
 HarFok:  IExCor=  205 AccDes= 0.00D+00 IRadAn=         5 IDoV=-2 UseB2=F ITyADJ=14
 ICtDFT= 12500011 ScaDFX=  1.000000  1.000000  1.000000  1.000000
 Range of M.O.s used for correlation:     6   276
 NBasis=   276 NAE=    22 NBE=    21 NFC=     5 NFV=     0
 NROrb=    271 NOA=    17 NOB=    16 NVA=   254 NVB=   255

 **** Warning!!: The largest alpha MO coefficient is  0.11935782D+02


 **** Warning!!: The largest beta MO coefficient is  0.11934892D+02

 DoSCS=T DFT=T ScalE2(SS,OS)=  0.270000  0.270000
 Fully direct method using O(ONN) memory.
 JobTyp=2 Pass  1:  I=   6 to  21 NPSUse= 40 ParTrn=T ParDer=T DoDerP=T.
 JobTyp=2 Pass  2:  I=  22 to  22 NPSUse= 40 ParTrn=T ParDer=T DoDerP=T.
 JobTyp=3 Pass  1:  I=   6 to  21 NPSUse= 40 ParTrn=T ParDer=T DoDerP=T.
 Spin components of T(2) and E(2):
     alpha-alpha T2 =       0.5410740162D-01 E2=     -0.4068245042D-01
     alpha-beta  T2 =       0.3355569686D+00 E2=     -0.2555924630D+00
     beta-beta   T2 =       0.5842762365D-01 E2=     -0.3915731448D-01
 (S**2,0)=  0.76827D+00           (S**2,1)=  0.74276D+00
 Scaling Projection term by:   0.270000
 E(PUHF)=      -0.26956402841D+03        E(PMP2)=      -0.26989381081D+03
 E2(B2PLYPD3) =    -0.3354322279D+00 E(B2PLYPD3) =    -0.26989330330334D+03
          IDoAtm=11111111111111
          Differentiating once with respect to electric field.
                with respect to dipole field.
          Differentiating once with respect to nuclear coordinates.
 Keep R1 and R2 ints in memory in canonical form, NReq=1506972220.
          There are     1 degrees of freedom in the 1st order CPHF.  IDoFFX=0 NUNeed=     1.
 LinEq1:  Iter=  0 NonCon=     1 RMS=1.02D-03 Max=6.68D-02 NDo=     1
 AX will form     1 AO Fock derivatives at one time.
 LinEq1:  Iter=  1 NonCon=     1 RMS=3.25D-04 Max=8.53D-03 NDo=     1
 LinEq1:  Iter=  2 NonCon=     1 RMS=1.78D-04 Max=7.80D-03 NDo=     1
 LinEq1:  Iter=  3 NonCon=     1 RMS=7.36D-05 Max=1.03D-03 NDo=     1
 LinEq1:  Iter=  4 NonCon=     1 RMS=4.06D-05 Max=6.36D-04 NDo=     1
 LinEq1:  Iter=  5 NonCon=     1 RMS=3.04D-05 Max=8.10D-04 NDo=     1
 LinEq1:  Iter=  6 NonCon=     1 RMS=1.83D-05 Max=4.71D-04 NDo=     1
 LinEq1:  Iter=  7 NonCon=     1 RMS=5.85D-06 Max=9.31D-05 NDo=     1
 LinEq1:  Iter=  8 NonCon=     1 RMS=2.38D-06 Max=3.18D-05 NDo=     1
 LinEq1:  Iter=  9 NonCon=     1 RMS=1.11D-06 Max=2.25D-05 NDo=     1
 LinEq1:  Iter= 10 NonCon=     1 RMS=3.64D-07 Max=6.54D-06 NDo=     1
 LinEq1:  Iter= 11 NonCon=     1 RMS=1.09D-07 Max=2.30D-06 NDo=     1
 LinEq1:  Iter= 12 NonCon=     1 RMS=4.19D-08 Max=8.43D-07 NDo=     1
 LinEq1:  Iter= 13 NonCon=     1 RMS=1.78D-08 Max=2.92D-07 NDo=     1
 LinEq1:  Iter= 14 NonCon=     1 RMS=6.15D-09 Max=8.00D-08 NDo=     1
 LinEq1:  Iter= 15 NonCon=     1 RMS=1.60D-09 Max=3.33D-08 NDo=     1
 LinEq1:  Iter= 16 NonCon=     1 RMS=4.53D-10 Max=1.64D-08 NDo=     1
 LinEq1:  Iter= 17 NonCon=     1 RMS=1.53D-10 Max=7.19D-09 NDo=     1
 LinEq1:  Iter= 18 NonCon=     1 RMS=5.79D-11 Max=2.80D-09 NDo=     1
 LinEq1:  Iter= 19 NonCon=     0 RMS=1.72D-11 Max=5.31D-10 NDo=     1
 Linear equations converged to 1.000D-10 1.000D-09 after    19 iterations.
 End of Minotr F.D. properties file   721 does not exist.
 End of Minotr F.D. properties file   722 does not exist.
 End of Minotr F.D. properties file   788 does not exist.
 Calling FoFJK, ICntrl=  10002127 FMM=F ISym2X=0 I1Cent= 0 IOpClX= 1 NMat=1 NMatS=1 NMatT=0.
 ***** Axes restored to original set *****
 -------------------------------------------------------------------
 Center     Atomic                   Forces (Hartrees/Bohr)
 Number     Number              X              Y              Z
 -------------------------------------------------------------------
      1        6           0.000015409   -0.000024278    0.000028963
      2        1           0.000003332    0.000001979    0.000002978
      3        1          -0.000003218    0.000008304    0.000001468
      4        1          -0.000022201    0.000028417   -0.000017846
      5        6          -0.000017812   -0.000035341   -0.000004134
      6        1          -0.000018267    0.000010231    0.000002838
      7        1           0.000032074    0.000002931    0.000010142
      8        6           0.000004135   -0.000014088    0.000012816
      9        1          -0.000001173    0.000000074   -0.000005462
     10        1          -0.000001205    0.000000893   -0.000000098
     11        1           0.000000088    0.000001843   -0.000001912
     12        8          -0.000019305    0.000000371    0.000004066
     13        8           0.000006405    0.000003030   -0.000023639
     14        1           0.000021737    0.000015633   -0.000010179
 -------------------------------------------------------------------
 Cartesian Forces:  Max     0.000035341 RMS     0.000014474

 GradGradGradGradGradGradGradGradGradGradGradGradGradGradGradGradGradGrad
 Berny optimization.
 FormGI is forming the generalized inverse of G from B-inverse, IUseBI=4.
 Internal  Forces:  Max     0.000029903 RMS     0.000011667
 Search for a saddle point.
 Step number   2 out of a maximum of  100
 All quantities printed in internal units (Hartrees-Bohrs-Radians)
 Swapping is turned off.
 Update second derivatives using D2CorX and points    1    2
 ITU=  0  0
     Eigenvalues ---   -0.07334   0.00048   0.00129   0.00610   0.01579
     Eigenvalues ---    0.02429   0.03020   0.03212   0.03842   0.04392
     Eigenvalues ---    0.04425   0.06812   0.08496   0.08524   0.09173
     Eigenvalues ---    0.09745   0.12063   0.13066   0.14482   0.16122
     Eigenvalues ---    0.16352   0.16797   0.18024   0.18551   0.25810
     Eigenvalues ---    0.31250   0.31948   0.33029   0.33518   0.34112
     Eigenvalues ---    0.34444   0.34915   0.34935   0.35290   0.35533
     Eigenvalues ---    0.40422
 Eigenvectors required to have negative eigenvalues:
                          R7        R13       R12       D4        A20
   1                    0.68912  -0.66574   0.15106  -0.08069  -0.07840
                          D8        D1        D2        D7        D5
   1                    0.07793  -0.07250   0.07124  -0.06581   0.06305
 RFO step:  Lambda0=1.476165315D-09 Lambda=-2.19427046D-06.
 Linear search not attempted -- option 19 set.
 Iteration  1 RMS(Cart)=  0.02193541 RMS(Int)=  0.00018120
 Iteration  2 RMS(Cart)=  0.00023006 RMS(Int)=  0.00000086
 Iteration  3 RMS(Cart)=  0.00000003 RMS(Int)=  0.00000086
 Variable       Old X    -DE/DX   Delta X   Delta X   Delta X     New X
                                 (Linear)    (Quad)   (Total)
    R1        2.06807  -0.00000   0.00000   0.00009   0.00009   2.06815
    R2        2.05602  -0.00000   0.00000   0.00003   0.00003   2.05605
    R3        2.05770   0.00000   0.00000  -0.00015  -0.00015   2.05756
    R4        2.83351   0.00002   0.00000  -0.00003  -0.00003   2.83349
    R5        2.05131  -0.00000   0.00000   0.00000   0.00000   2.05131
    R6        2.05122  -0.00000   0.00000  -0.00003  -0.00003   2.05119
    R7        2.57368   0.00000   0.00000   0.00052   0.00052   2.57420
    R8        2.06252   0.00000   0.00000   0.00008   0.00008   2.06260
    R9        2.05623   0.00000   0.00000   0.00001   0.00001   2.05624
   R10        2.05705   0.00000   0.00000  -0.00000  -0.00000   2.05705
   R11        2.68388  -0.00001   0.00000  -0.00008  -0.00008   2.68380
   R12        2.66275  -0.00001   0.00000  -0.00002  -0.00002   2.66273
   R13        2.20092  -0.00001   0.00000  -0.00028  -0.00028   2.20064
    A1        1.88057  -0.00001   0.00000  -0.00032  -0.00032   1.88025
    A2        1.87662  -0.00001   0.00000  -0.00030  -0.00030   1.87632
    A3        1.93310  -0.00000   0.00000  -0.00048  -0.00048   1.93262
    A4        1.88363   0.00000   0.00000   0.00001   0.00001   1.88364
    A5        1.94302   0.00002   0.00000   0.00013   0.00013   1.94314
    A6        1.94413   0.00000   0.00000   0.00093   0.00093   1.94506
    A7        2.03291  -0.00001   0.00000  -0.00079  -0.00079   2.03213
    A8        2.03036  -0.00001   0.00000   0.00022   0.00022   2.03058
    A9        1.82214   0.00003   0.00000   0.00137   0.00137   1.82351
   A10        1.96849   0.00001   0.00000   0.00015   0.00015   1.96864
   A11        1.76338   0.00000   0.00000  -0.00096  -0.00096   1.76242
   A12        1.79840  -0.00002   0.00000   0.00012   0.00012   1.79852
   A13        1.91803  -0.00000   0.00000  -0.00003  -0.00003   1.91800
   A14        1.91613  -0.00000   0.00000  -0.00007  -0.00007   1.91606
   A15        1.93500   0.00000   0.00000  -0.00005  -0.00005   1.93495
   A16        1.92501   0.00000   0.00000   0.00002   0.00002   1.92503
   A17        1.83755   0.00000   0.00000   0.00005   0.00005   1.83760
   A18        1.93096   0.00000   0.00000   0.00008   0.00008   1.93104
   A19        1.88012  -0.00000   0.00000  -0.00010  -0.00010   1.88002
   A20        1.81747  -0.00003   0.00000   0.00009   0.00009   1.81756
   A21        3.12333   0.00001   0.00000  -0.00001  -0.00000   3.12333
   A22        3.04935  -0.00001   0.00000   0.00216   0.00216   3.05151
    D1       -1.27110   0.00001   0.00000   0.01090   0.01090  -1.26020
    D2        1.11696   0.00001   0.00000   0.01043   0.01043   1.12739
    D3        3.08515  -0.00001   0.00000   0.01157   0.01157   3.09671
    D4        0.82093   0.00001   0.00000   0.01026   0.01026   0.83119
    D5       -3.07420   0.00001   0.00000   0.00979   0.00979  -3.06440
    D6       -1.10601  -0.00001   0.00000   0.01093   0.01093  -1.09508
    D7        2.92429   0.00003   0.00000   0.01099   0.01099   2.93529
    D8       -0.97084   0.00003   0.00000   0.01053   0.01053  -0.96031
    D9        0.99736   0.00001   0.00000   0.01166   0.01166   1.00902
   D10       -0.64910   0.00002   0.00000   0.03130   0.03130  -0.61779
   D11       -2.75966   0.00001   0.00000   0.03225   0.03225  -2.72741
   D12        1.46964   0.00001   0.00000   0.03278   0.03278   1.50242
   D13        1.14253  -0.00000   0.00000   0.00022   0.00022   1.14274
   D14       -3.06726  -0.00000   0.00000   0.00019   0.00019  -3.06707
   D15       -0.98766  -0.00000   0.00000   0.00029   0.00029  -0.98738
   D16       -1.59707  -0.00002   0.00000   0.00064   0.00064  -1.59643
         Item               Value     Threshold  Converged?
 Maximum Force            0.000030     0.000450     YES
 RMS     Force            0.000012     0.000300     YES
 Maximum Displacement     0.055730     0.001800     NO 
 RMS     Displacement     0.021962     0.001200     NO 
 Predicted change in Energy=-1.096376D-06
 GradGradGradGradGradGradGradGradGradGradGradGradGradGradGradGradGradGrad

                          Input orientation:                          
 ---------------------------------------------------------------------
 Center     Atomic      Atomic             Coordinates (Angstroms)
 Number     Number       Type             X           Y           Z
 ---------------------------------------------------------------------
[...]
 ! A10   A(6,5,7)              112.799          -DE/DX =    0.0                 !
 ! A11   A(6,5,14)             100.9422         -DE/DX =    0.0                 !
 ! A12   A(7,5,14)             103.0617         -DE/DX =    0.0                 !
 ! A13   A(9,8,10)             109.8922         -DE/DX =    0.0                 !
 ! A14   A(9,8,11)             109.7801         -DE/DX =    0.0                 !
 ! A15   A(9,8,12)             110.8628         -DE/DX =    0.0                 !
 ! A16   A(10,8,11)            110.2973         -DE/DX =    0.0                 !
 ! A17   A(10,8,12)            105.2885         -DE/DX =    0.0                 !
 ! A18   A(11,8,12)            110.6427         -DE/DX =    0.0                 !
 ! A19   A(8,12,13)            107.7157         -DE/DX =    0.0                 !
 ! A20   A(12,13,14)           104.1405         -DE/DX =    0.0                 !
 ! A21   L(5,14,13,9,-1)       178.9473         -DE/DX =    0.0                 !
 ! A22   L(5,14,13,9,-2)       174.8841         -DE/DX =    0.0                 !
 ! D1    D(2,1,5,6)            -71.8074         -DE/DX =    0.0                 !
 ! D2    D(2,1,5,7)             64.9784         -DE/DX =    0.0                 !
 ! D3    D(2,1,5,14)           177.8579         -DE/DX =    0.0                 !
 ! D4    D(3,1,5,6)             47.9994         -DE/DX =    0.0                 !
 ! D5    D(3,1,5,7)           -175.2148         -DE/DX =    0.0                 !
 ! D6    D(3,1,5,14)           -62.3353         -DE/DX =    0.0                 !
 ! D7    D(4,1,5,6)            168.5824         -DE/DX =    0.0                 !
 ! D8    D(4,1,5,7)            -54.6318         -DE/DX =    0.0                 !
 ! D9    D(4,1,5,14)            58.2476         -DE/DX =    0.0                 !
 ! D10   D(1,5,13,12)          -34.2076         -DE/DX =    0.0                 !
 ! D11   D(6,5,13,12)         -155.0417         -DE/DX =    0.0                 !
 ! D12   D(7,5,13,12)           87.3219         -DE/DX =    0.0                 !
 ! D13   D(9,8,12,13)           65.4839         -DE/DX =    0.0                 !
 ! D14   D(10,8,12,13)        -175.722          -DE/DX =    0.0                 !
 ! D15   D(11,8,12,13)         -56.5608         -DE/DX =    0.0                 !
 ! D16   D(8,12,13,14)         -91.4257         -DE/DX =    0.0                 !
 --------------------------------------------------------------------------------
 GradGradGradGradGradGradGradGradGradGradGradGradGradGradGradGradGradGrad


 ----------------------------------------------------------------------

 Electric dipole moment (input orientation):
 (Debye = 10**-18 statcoulomb cm , SI units = C m)
                  (au)            (Debye)         (10**-30 SI)
   Tot        0.888000D+00      0.225707D+01      0.752878D+01
   x         -0.342988D+00     -0.871788D+00     -0.290797D+01
   y          0.731870D+00      0.186023D+01      0.620505D+01
   z         -0.367790D+00     -0.934828D+00     -0.311825D+01

 Dipole polarizability, Alpha (input orientation).
 (esu units = cm**3 , SI units = C**2 m**2 J**-1)
 Alpha(0;0):
               (au)            (10**-24 esu)      (10**-40 SI)
   iso        0.597081D+02      0.884783D+01      0.984454D+01
   aniso      0.367167D+02      0.544086D+01      0.605377D+01
   xx         0.827283D+02      0.122591D+02      0.136400D+02
   yx         0.227591D+01      0.337256D+00      0.375248D+00
   yy         0.490995D+02      0.727579D+01      0.809541D+01
   zx         0.618321D+01      0.916257D+00      0.101947D+01
   zy         0.277542D+01      0.411275D+00      0.457605D+00
   zz         0.472966D+02      0.700863D+01      0.779816D+01

 ----------------------------------------------------------------------

 Dipole orientation:
     6         -4.04066094         -0.26439886          0.75130620
     1         -5.46218676         -0.06195064          2.23984047
     1         -5.01278819         -0.83142895         -0.96940950
     1         -2.78234782         -1.79628457          1.30198578
     6         -2.62272703          2.16096929          0.38298810
     1         -3.65247684          3.69297533         -0.51168177
     1         -1.47161492          2.79107604          1.95943165
     6          3.21107263         -1.59054876         -0.74735889
     1          2.78514820         -0.67735281          1.05240271
     1          3.63411547         -3.57919299         -0.44003622
     1          4.80685265         -0.65179512         -1.64383551
     8          1.06836984         -1.56435625         -2.36309974
     8          0.54794238          0.97365817         -2.97761063
     1         -0.87833269          1.61955968         -1.43140835

 Electric dipole moment (dipole orientation):
 (Debye = 10**-18 statcoulomb cm , SI units = C m)
                  (au)            (Debye)         (10**-30 SI)
   Tot        0.888000D+00      0.225707D+01      0.752878D+01
   x          0.000000D+00      0.000000D+00      0.000000D+00
   y          0.000000D+00      0.000000D+00      0.000000D+00
   z          0.888000D+00      0.225707D+01      0.752878D+01

 Dipole polarizability, Alpha (dipole orientation).
 (esu units = cm**3 , SI units = C**2 m**2 J**-1)
 Alpha(0;0):
               (au)            (10**-24 esu)      (10**-40 SI)
   iso        0.597081D+02      0.884783D+01      0.984454D+01
   aniso      0.367167D+02      0.544086D+01      0.605377D+01
   xx         0.718996D+02      0.106544D+02      0.118546D+02
   yx        -0.124973D+02     -0.185190D+01     -0.206052D+01
   yy         0.547831D+02      0.811801D+01      0.903251D+01
   zx        -0.129378D+02     -0.191718D+01     -0.213315D+01
   zy         0.359998D+01      0.533462D+00      0.593557D+00
   zz         0.524417D+02      0.777106D+01      0.864647D+01

 ----------------------------------------------------------------------
 1\1\GINC-N144\Freq\UB2PLYPD3-FC\CC-pVTZ\C3H9O2(2)\ROOT\24-Jun-2019\0\\
 #N Geom=AllCheck Guess=TCheck SCRF=Check GenChk UB2PLYPD3(FC)/CC-pVTZ 
 Freq\\Title Card Required\\0,2\C,-2.0347227205,-0.0809416167,0.7765320
 671\H,-3.0359673127,0.3432574003,0.6525404491\H,-2.0756338493,-0.79127
 54735,1.5996659758\H,-1.3691747417,0.7303858618,1.0667578306\C,-1.5771
 681736,-0.7396467997,-0.4903498565\H,-2.0642301856,-1.673807609,-0.751
 9514181\H,-1.4295595684,-0.0882606037,-1.3459564976\C,1.8621894671,0.4
 939503695,0.2011751724\H,1.1839380517,0.9770283023,-0.5045064432\H,2.2
 365099427,1.2252516745,0.9146710107\H,2.6889652341,0.0348976505,-0.337
 9324671\O,1.1750630702,-0.473174143,0.9818333946\O,0.7519917377,-1.501
 1277361,0.1159695294\H,-0.3161119517,-1.1742922771,-0.2130967472\\Vers
 ion=ES64L-G16RevB.01\State=2-A\HF=-269.5578696\MP2=-269.8933051\PUHF=-
 269.5640261\PMP2-0=-269.8938125\S2=0.768271\S2-1=0.742761\S2A=0.750149
 \RMSD=1.068e-09\RMSF=1.511e-06\ZeroPoint=0.1131803\Thermal=0.1210368\D
 ipole=-0.3429877,0.73187,-0.3677897\DipoleDeriv=-0.2181611,0.0393641,0
 .0322286,0.1068763,0.0068134,-0.0499969,-0.0581685,-0.0298015,0.009682
 1,-0.0920171,0.0773443,-0.0004562,0.1121177,0.0489901,-0.0007194,0.094
 5051,-0.0133477,0.0542445,0.0884583,0.0055128,0.000138,-0.0118128,-0.0
 174184,0.0851677,0.0442135,0.0543812,-0.0530261,0.0409441,-0.100358,-0
 .0298324,-0.0735908,-0.0327391,-0.0309557,0.02328,-0.0382379,0.0262952
 ,1.0109451,0.0012165,0.1693364,-0.378578,0.1188945,-0.0736976,0.012644
 8,0.0078689,0.114002,-0.1060888,-0.0805118,-0.0517705,0.0252319,-0.050
 0605,-0.0427708,-0.026009,-0.0428573,0.0081262,-0.09383,-0.0114192,-0.
 0220683,0.0144702,-0.0115618,0.0837226,0.0203937,0.0393256,-0.0826304,
 0.5746939,0.0769753,-0.005245,0.2965781,0.4147333,-0.044408,-0.241025,
 -0.1261473,0.3247056,-0.0843363,0.0681997,-0.1088879,-0.0310793,-0.017
 4954,0.0328992,0.0143401,0.0979297,-0.0260475,0.0231186,-0.0587879,-0.
 0194416,-0.0991464,-0.0254583,-0.054573,-0.0246323,-0.0694319,-0.01757
 99,-0.1049754,0.0052749,0.0573562,0.0774549,-0.0033941,-0.0498645,0.13
 21352,0.0239615,0.0184385,-0.5425911,0.000927,0.0012173,-0.7934756,-0.
 3083867,-0.1054659,-0.4044339,0.0915962,-0.4132828,0.5828802,-0.070085
 ,0.2378773,0.4204827,-0.2157916,0.1917062,0.8100659,0.0091281,0.000238
 ,-1.0790405,0.0463473,-0.260452,0.3344712,0.0928746,0.0589563,-0.39730
 95,-0.0043674,0.0368344\Polar=82.7282746,2.2759149,49.0994805,6.183206
 5,2.7754197,47.2966088\PG=C01 [X(C3H9O2)]\NImag=1\\0.52309961,0.027032
 74,0.55139771,0.01740988,-0.03456262,0.51152716,-0.25552125,0.08734639
 ,-0.03332957,0.28123493,0.08997460,-0.08043475,0.01581826,-0.10008990,
 0.08642321,-0.02594204,0.01210852,-0.04633489,0.03109512,-0.01182069,0
 .05197227,-0.04650073,-0.00712306,0.00457661,0.00127862,0.02031380,-0.
 02285377,0.04709297,-0.00793208,-0.16764147,0.13369277,-0.00102657,-0.
 00856050,0.00840648,0.00591087,0.17866859,0.00622261,0.13203956,-0.197
 29916,-0.00019710,0.00232246,-0.00290845,-0.00953059,-0.14396437,0.217
 53990,-0.14697005,-0.12519862,-0.04188078,-0.01884151,-0.02279911,-0.0
 0716441,-0.00083519,0.00083232,0.00030710,0.15918178,-0.12351597,-0.19
 333515,-0.04789295,0.00812447,0.00971681,0.00364926,-0.01315203,-0.015
 45913,-0.00615975,0.13494042,0.21050008,-0.04161322,-0.04892498,-0.066
 53071,-0.00293163,-0.00290534,-0.00163645,0.01625143,0.01774100,0.0072
 7505,0.04397285,0.05856935,0.07106601,-0.06598866,0.00629064,0.0393577
 5,-0.01001880,0.01295793,0.02449479,-0.00263516,0.00110922,0.00208027,
 0.00731447,-0.00739375,-0.01804818,0.20793919,0.00931392,-0.10828634,-
 0.05157299,0.00557055,-0.00753725,-0.01163033,-0.00725527,0.01241252,0
 .01927211,0.01089486,-0.01282588,-0.02308492,0.13489403,0.54155315,0.0
 4717490,-0.05272214,-0.18131578,0.00356988,-0.00197493,-0.00077725,0.0
 1001572,-0.01312782,-0.02241479,0.00285950,-0.00507335,-0.00663597,-0.
 05779402,-0.00567629,0.51790136,0.00893655,0.01285304,0.00418178,0.000
 03096,-0.00080117,-0.00095036,-0.00010757,-0.00055176,-0.00040496,-0.0
 0054941,0.00080049,0.00242060,-0.08895724,-0.12796527,-0.02533618,0.09
 239140,-0.00827464,-0.00901048,-0.00242857,0.00015338,0.00035480,0.000
 50202,0.00053185,0.00092963,-0.00021122,0.00192100,0.00051160,-0.00217
 452,-0.11397964,-0.25084090,-0.05450126,0.12506425,0.26878053,-0.01402
 370,-0.02146192,-0.00332497,0.00028649,-0.00013876,0.00024901,-0.00073
 352,0.00074427,0.00126846,0.00232725,-0.00302202,-0.00427996,-0.022725
 09,-0.05752040,-0.06674382,0.02629676,0.06297863,0.06636564,0.00001652
 ,-0.00855336,0.01021985,0.00070128,-0.00011056,-0.00125959,0.00070591,
 0.00196943,0.00164269,0.00034301,0.00101800,-0.00006021,-0.03034357,-0
 .02353472,0.02425023,0.00127361,-0.00959548,0.01198698,0.03360748,0.00
 232882,0.01234016,-0.01321291,-0.00017283,0.00028010,0.00065463,0.0012
 6986,-0.00068416,-0.00349939,-0.00053176,0.00067730,0.00085353,-0.0320
 1769,-0.15674123,0.13181001,-0.00110971,-0.01220698,0.02051105,0.02932
 242,0.15986126,0.00124180,0.01751909,-0.01671475,0.00038479,-0.0000098
 2,0.00058037,0.00219314,-0.00334282,-0.00359823,-0.00068839,0.00006267
 ,0.00098244,0.03581204,0.12987301,-0.22050085,-0.00161049,-0.00572766,
 0.00766640,-0.03627225,-0.14078249,0.23451249,0.00084245,-0.00048747,0
 .00041803,0.00016388,-0.00007075,-0.00037062,-0.00005781,0.00009099,-0
 .00015096,-0.00054775,0.00034516,0.00016247,-0.00519052,0.00139060,0.0
 0052424,0.00074214,-0.00018621,0.00016882,0.00111615,-0.00022872,-0.00
 002776,0.54930617,0.00173266,-0.00046359,0.00094627,0.00016429,-0.0003
 1861,-0.00056024,-0.00036485,-0.00007892,0.00002887,-0.00039321,0.0003
 1672,-0.00045181,-0.00798690,0.00441056,-0.00211380,0.00132079,-0.0008
 9047,0.00045978,0.00112288,-0.00042885,0.00072450,-0.04654376,0.519283
 71,-0.00166908,0.00063057,-0.00082577,-0.00009040,0.00024229,0.0005153
 1,0.00027087,0.00003084,-0.00005103,0.00032314,-0.00013605,0.00049168,
 0.00523314,-0.00314941,0.00172197,-0.00078754,0.00075590,-0.00028834,-
 0.00064221,0.00036519,-0.00063593,0.03680008,0.07219152,0.57705188,-0.
 00017898,0.00007760,-0.00001995,0.00003861,0.00001136,0.00007692,0.000
 04144,0.00002012,0.00003849,0.00000323,0.00006669,0.00009198,0.0003315
 7,0.00030577,-0.00034302,0.00009306,-0.00003259,-0.00005868,-0.0006059
 1,-0.00013723,-0.00002230,-0.16435887,0.07260092,-0.10866417,0.1687657
 2,-0.00032645,0.00015505,-0.00011582,0.00001454,0.00006285,0.00010100,
 0.00007598,0.00000062,-0.00002795,0.00000567,0.00000164,0.00012992,0.0
 0168717,-0.00060557,0.00024494,-0.00010074,0.00015924,-0.00015465,-0.0
 0063507,0.00018270,-0.00027106,0.07083219,-0.09312557,0.06049458,-0.07
 441947,0.10374114,0.00064598,0.00003092,0.00027536,-0.00003304,-0.0001
 1852,-0.00019205,-0.00014663,-0.00010770,-0.00002601,0.00004338,-0.000
 06577,-0.00032585,-0.00213104,0.00100897,-0.00020234,0.00029977,-0.000
 28258,0.00005237,0.00018883,-0.00010283,0.00024849,-0.10450896,0.06452
 568,-0.14992102,0.11215878,-0.08214580,0.16750731,-0.00026501,-0.00004
 829,-0.00011318,0.00001028,0.00005464,0.00009924,0.00003341,0.00000568
 ,0.00002472,0.00000147,0.00001929,-0.00000832,0.00047841,-0.00020828,-
 0.00005192,-0.00011195,0.00005176,0.00004255,-0.00002714,0.00001392,0.
 00005346,-0.08006607,-0.05640030,-0.05668376,-0.00584688,-0.01361208,-
 0.01342450,0.08368053,-0.00037120,0.00014890,-0.00011833,0.00000224,0.
 00004305,0.00012965,0.00004495,-0.00002232,-0.00000939,0.00002421,-0.0
 0000595,0.00003249,0.00080263,-0.00030430,0.00015039,-0.00008781,0.000
 12304,-0.00003426,-0.00020855,0.00006879,-0.00008121,-0.05751161,-0.16
 360622,-0.11374695,0.00508462,0.01157247,0.00889992,0.07142597,0.18476
 037,0.00007046,-0.00010127,0.00000882,0.00000539,-0.00000190,-0.000032
 09,-0.00000933,0.00001935,0.00002084,-0.00000193,-0.00001138,-0.000020
 18,-0.00016988,0.00003281,-0.00009851,-0.00002515,-0.00004791,0.000037
 79,0.00016130,-0.00005291,0.00007862,-0.06281567,-0.12407289,-0.175955
 35,-0.00484906,-0.01362039,-0.01128096,0.06446619,0.12751280,0.1809562
 7,-0.00006024,0.00006279,-0.00006558,-0.00004411,0.00002572,0.00004477
 ,0.00001611,-0.00001295,0.00000767,0.00010933,-0.00006910,-0.00004740,
 0.00095762,-0.00033789,0.00001123,-0.00016601,0.00003177,-0.00003402,-
 0.00022878,0.00006022,0.00003125,-0.19877829,0.09172357,0.09042718,-0.
 01450763,0.01127424,0.00969061,0.01099542,-0.00462946,-0.00654063,0.21
 559746,0.00002171,-0.00013394,-0.00007917,-0.00001233,0.00003369,-0.00
 002361,0.00006365,0.00005058,-0.00001031,0.00002225,-0.00002460,0.0000
 9425,0.00009060,-0.00010180,0.00000030,-0.00002710,0.00004105,-0.00001
 877,-0.00003922,0.00000232,-0.00008358,0.09709967,-0.10683514,-0.06375
 231,0.00917212,-0.00424957,-0.00731435,0.01629791,-0.00736540,-0.00807
 524,-0.09516703,0.11064891,0.00036111,-0.00008848,0.00018676,0.0000302
 8,-0.00006626,-0.00008972,-0.00010112,-0.00004479,0.00000296,-0.000076
 94,0.00005848,-0.00015507,-0.00126748,0.00072514,-0.00041909,0.0001997
 3,-0.00014934,0.00008478,0.00015013,-0.00004048,0.00013694,0.09137419,
 -0.05675576,-0.10944221,-0.01660476,0.00914995,0.01106501,0.01552374,-
 0.00880127,-0.00835698,-0.10961695,0.05719286,0.12144424,-0.00047470,0
 .00062621,-0.00094891,-0.00055724,0.00007116,0.00014910,0.00000733,-0.
 00000041,0.00033607,-0.00021083,-0.00058285,0.00001583,0.00803581,-0.0
 0334167,-0.00036226,-0.00130058,0.00098657,-0.00048590,-0.00187161,0.0
 0049456,-0.00048238,-0.09477445,-0.03688256,0.06035428,0.01391611,0.00
 375785,-0.00518066,-0.00746667,-0.01014262,0.00652150,-0.01565401,-0.0
 2908964,0.02253325,0.16701166,-0.00611198,0.00116385,-0.00233038,0.000
 25173,0.00127839,0.00283483,0.00012268,-0.00009279,0.00060655,0.000424
 48,0.00118971,0.00104394,0.03287009,-0.01294809,0.00428256,-0.00415551
 ,0.00220587,-0.00094364,-0.00470866,0.00119932,-0.00096435,-0.04125717
 ,-0.11067906,0.07653736,-0.01555949,-0.02281233,0.01899968,-0.01419556
 ,-0.02083814,0.01275357,-0.00683126,0.00340190,0.00016057,0.13201902,0
 .28326322,-0.00326929,0.00070130,-0.00093628,0.00017915,0.00074717,0.0
 0165824,-0.00014312,-0.00016009,0.00047645,0.00011563,0.00080683,0.000
 34772,0.02068188,-0.00746956,0.00144992,-0.00254470,0.00128272,-0.0007
 9722,-0.00340510,0.00055651,-0.00055933,0.04125787,0.04358179,-0.15379
 064,0.01587081,0.02438970,-0.01870019,-0.01188623,-0.01699059,0.012523
 42,0.01585927,0.01954309,-0.01575854,-0.02986050,-0.00157079,0.3071235
 1,0.00949233,-0.00391697,-0.00021275,-0.00034813,-0.00092994,-0.002215
 03,0.00008512,-0.00004792,-0.00026707,-0.00034015,-0.00047381,-0.00027
 917,-0.12997126,0.04791462,-0.02526575,0.00842965,-0.00446074,0.002271
 40,0.00839097,-0.00122937,0.00097710,-0.01404187,-0.03180245,-0.018962
 18,0.00285499,0.00438559,-0.00034447,-0.00149240,-0.00410740,0.0031817
 6,0.00342148,0.00180279,-0.00417288,-0.04896172,-0.01829765,-0.0044145
 0,0.10734783,0.00368209,-0.00021150,0.00263853,-0.00049729,-0.00086550
 ,-0.00218608,0.00021814,0.00014392,-0.00078089,-0.00038628,-0.00102926
 ,-0.00074206,0.00826133,0.00097408,0.00524004,0.00203928,0.00011147,0.
 00040362,0.00256838,-0.00039406,-0.00013440,-0.01922181,-0.04559185,-0
 .02864807,0.00193173,0.00438815,-0.00330091,-0.00350496,-0.00403784,0.
 00512961,0.00332519,0.00471267,-0.00106156,-0.03905632,-0.13946481,-0.
 06528470,0.00746448,0.22482894,0.00879102,-0.00253481,0.00204113,-0.00
 074741,-0.00105168,-0.00261154,-0.00053557,0.00025276,-0.00008398,-0.0
 0062737,-0.00065249,-0.00070769,-0.06406495,0.02399618,-0.00748563,0.0
 0561058,-0.00271673,0.00124952,0.00618057,-0.00178156,0.00162163,-0.00
 613464,-0.00210796,0.01224771,0.00265482,0.00243057,0.00037425,0.00205
 334,0.00288567,0.00223562,0.00078552,0.00284173,0.00091949,-0.03083758
 ,-0.09357811,-0.11175915,0.01659466,0.09185083,0.09600139,-0.02642783,
 0.01103838,0.00040681,0.00187250,0.00139222,0.00479586,0.00087556,-0.0
 0036694,-0.00010894,0.00134160,-0.00012700,0.00007298,0.10804815,-0.04
 764125,0.02074745,-0.02070460,0.00778872,-0.00531934,-0.01307791,0.001
 93750,-0.00158999,0.00564484,0.01170891,-0.00590933,-0.00054647,-0.002
 93941,0.00274196,0.00007661,-0.00032597,0.00000504,-0.00165835,-0.0002
 3537,0.00166770,-0.01769911,-0.05457072,-0.03844117,0.05513317,0.03317
 605,0.06027700,-0.09287816,0.01244578,-0.00568844,-0.00078207,0.000171
 31,-0.00047629,-0.00216544,-0.00065656,0.00033342,0.00039372,0.0002437
 7,-0.00023389,-0.00018085,-0.03758565,-0.00915895,-0.00653866,-0.00727
 876,-0.00026840,-0.00180291,0.01138451,-0.00415668,0.00321813,-0.00425
 112,-0.00199272,-0.00181545,0.00087786,0.00052917,-0.00002672,0.000100
 30,-0.00053646,0.00053575,0.00054420,-0.00018066,-0.00027907,-0.018859
 30,0.01313296,-0.00013338,0.00369879,-0.04356441,-0.01983440,0.0391648
 7,0.05226137,0.00459959,-0.00263373,-0.00075693,0.00177805,-0.00104228
 ,-0.00039276,0.00074588,-0.00013987,-0.00020201,0.00049097,-0.00013282
 ,0.00012900,0.03854076,-0.01480431,-0.01447923,-0.00734984,0.00272051,
 -0.00153966,-0.01314122,0.00472166,-0.00381830,0.00330293,0.00360406,-
 0.00111826,-0.00032986,-0.00060500,0.00112561,-0.00009536,0.00017106,-
 0.00011732,-0.00055292,-0.00031490,0.00038145,-0.02175182,-0.01783179,
 -0.02127792,0.03310889,-0.00312397,0.00595725,-0.03934604,0.02941136,0
 .03610907\\-0.00000007,0.00000372,-0.00000402,-0.00000103,-0.00000049,
 -0.00000090,0.00000057,-0.00000045,-0.00000041,0.00000092,-0.00000393,
 0.00000221,0.00000218,0.00000190,0.00000033,0.00000122,-0.00000154,0.0
 0000018,-0.00000262,-0.00000008,-0.00000077,-0.00000040,0.00000080,-0.
 00000079,-0.00000062,0.00000023,0.00000032,-0.00000006,0.00000030,0.00
 000014,0.00000004,0.00000045,0.00000020,0.00000179,0.00000013,-0.00000
 008,0.00000085,0.00000012,0.00000215,-0.00000278,-0.00000116,0.0000014
 4\\\@


 CHRISTMAS IS ON TOP OF A STEEP HILL.
 THE CLOSER YOU GET, THE STEEPER THE HILL IS.
          -- LINUS, OF PEANUTS
 Job cpu time:       0 days 22 hours 47 minutes 30.4 seconds.
 Elapsed time:       0 days  0 hours 35 minutes 16.6 seconds.
 File lengths (MBytes):  RWF=  37353 Int=      0 D2E=      0 Chk=     13 Scr=      1
 Normal termination of Gaussian 16 at Mon Jun 24 16:02:12 2019.
