 Entering Gaussian System, Link 0=g16
 Initial command:
 /ichec/packages/gaussian/16b01/l1.exe "/localscratch/341085/Gau-96008.inp" -scrdir="/localscratch/341085/"
 Entering Link 1 = /ichec/packages/gaussian/16b01/l1.exe PID=     96585.
  
 Copyright (c) 1988-2017, Gaussian, Inc.  All Rights Reserved.
  
 This is part of the Gaussian(R) 16 program.  It is based on
 the Gaussian(R) 09 system (copyright 2009, Gaussian, Inc.),
 the Gaussian(R) 03 system (copyright 2003, Gaussian, Inc.),
 the Gaussian(R) 98 system (copyright 1998, Gaussian, Inc.),
 the Gaussian(R) 94 system (copyright 1995, Gaussian, Inc.),
 the Gaussian 92(TM) system (copyright 1992, Gaussian, Inc.),
 the Gaussian 90(TM) system (copyright 1990, Gaussian, Inc.),
 the Gaussian 88(TM) system (copyright 1988, Gaussian, Inc.),
 the Gaussian 86(TM) system (copyright 1986, Carnegie Mellon
 University), and the Gaussian 82(TM) system (copyright 1983,
 Carnegie Mellon University). Gaussian is a federally registered
 trademark of Gaussian, Inc.
  
 This software contains proprietary and confidential information,
 including trade secrets, belonging to Gaussian, Inc.
  
 This software is provided under written license and may be
 used, copied, transmitted, or stored only in accord with that
 written license.
  
 The following legend is applicable only to US Government
 contracts under FAR:
  
                    RESTRICTED RIGHTS LEGEND
  
 Use, reproduction and disclosure by the US Government is
 subject to restrictions as set forth in subparagraphs (a)
 and (c) of the Commercial Computer Software - Restricted
 Rights clause in FAR 52.227-19.
  
 Gaussian, Inc.
 340 Quinnipiac St., Bldg. 40, Wallingford CT 06492
  
  
 ---------------------------------------------------------------
 Warning -- This program may not be used in any manner that
 competes with the business of Gaussian, Inc. or will provide
 assistance to any competitor of Gaussian, Inc.  The licensee
 of this program is prohibited from giving any competitor of
 Gaussian, Inc. access to this program.  By using this program,
 the user acknowledges that Gaussian, Inc. is engaged in the
 business of creating and licensing software in the field of
 computational chemistry and represents and warrants to the
 licensee that it is not a competitor of Gaussian, Inc. and that
 it will not use this program in any manner prohibited above.
 ---------------------------------------------------------------
  

 Cite this work as:
 Gaussian 16, Revision B.01,
 M. J. Frisch, G. W. Trucks, H. B. Schlegel, G. E. Scuseria, 
 M. A. Robb, J. R. Cheeseman, G. Scalmani, V. Barone, 
 G. A. Petersson, H. Nakatsuji, X. Li, M. Caricato, A. V. Marenich, 
 J. Bloino, B. G. Janesko, R. Gomperts, B. Mennucci, H. P. Hratchian, 
 J. V. Ortiz, A. F. Izmaylov, J. L. Sonnenberg, D. Williams-Young, 
 F. Ding, F. Lipparini, F. Egidi, J. Goings, B. Peng, A. Petrone, 
 T. Henderson, D. Ranasinghe, V. G. Zakrzewski, J. Gao, N. Rega, 
 G. Zheng, W. Liang, M. Hada, M. Ehara, K. Toyota, R. Fukuda, 
 J. Hasegawa, M. Ishida, T. Nakajima, Y. Honda, O. Kitao, H. Nakai, 
 T. Vreven, K. Throssell, J. A. Montgomery, Jr., J. E. Peralta, 
 F. Ogliaro, M. J. Bearpark, J. J. Heyd, E. N. Brothers, K. N. Kudin, 
 V. N. Staroverov, T. A. Keith, R. Kobayashi, J. Normand, 
 K. Raghavachari, A. P. Rendell, J. C. Burant, S. S. Iyengar, 
 J. Tomasi, M. Cossi, J. M. Millam, M. Klene, C. Adamo, R. Cammi, 
 J. W. Ochterski, R. L. Martin, K. Morokuma, O. Farkas, 
 J. B. Foresman, and D. J. Fox, Gaussian, Inc., Wallingford CT, 2016.
 
 ******************************************
 Gaussian 16:  ES64L-G16RevB.01 20-Dec-2017
                 7-Jun-2019 
 ******************************************
 %mem=80GB
 %nproc=40
 Will use up to   40 processors via shared memory.
 ----------------------------------------------------------------------
 # opt=(calcfc,ts,noeigentest,maxcyc=500) freq=noraman uB2PLYPD3/cc-pvt
 z
 ----------------------------------------------------------------------
 1/5=1,6=500,10=4,11=1,18=20,38=1/1,3;
 2/9=110,12=2,17=6,18=5,40=1/2;
 3/5=16,6=1,11=2,25=1,30=1,71=2,74=-60,116=2,140=1/1,2,3;
 4//1;
 5/5=2,38=5/2;
 8/6=3,8=1,10=1,19=11,30=-1/1;
 9/15=3,16=-3/6;
 11/6=1,8=1,15=11,17=12,24=-1,27=1,28=-2,29=300,32=6,42=3/1,2,10;
 10/6=2,21=1/2;
 8/6=4,8=1,10=1,19=11,30=-1/11,4;
 10/5=1,20=4/2;
 11/12=2,14=11,16=1,17=2,28=-2,42=3,76=2/2,10,12;
 6/7=2,8=2,9=2,10=2/1;
 7/10=1,12=2,25=1,44=2/1,2,3,16;
 1/5=1,6=500,10=4,11=1,18=20/3(2);
 2/9=110/2;
 99//99;
 2/9=110/2;
 3/5=16,6=1,11=2,25=1,30=1,71=1,74=-60,116=2/1,2,3;
 4/5=5,16=3,69=1/1;
 5/5=2,38=5/2;
 8/6=4,10=1/1;
 9/15=2,16=-3/6;
 10/5=1/2;
 7/12=2/1,2,3,16;
 1/5=1,6=500,11=1,18=20/3(-8);
 2/9=110/2;
 6/7=2,8=2,9=2,10=2/1;
 99/9=10/99;
 -------------------
 Title Card Required
 -------------------
 Symbolic Z-matrix:
 Charge =  0 Multiplicity = 2
 C                     1.72485   0.11743   0.46674 
 H                     1.24124   1.05608   0.74289 
 H                     1.81777  -0.46897   1.38219 
 C                     0.87402  -0.62233  -0.52574 
 H                     0.57155  -0.06217  -1.40892 
 H                     1.19339  -1.63472  -0.76198 
 C                    -2.26107   1.0843   -0.00463 
 H                    -1.27864   1.54489  -0.13908 
 H                    -2.97971   1.54216  -0.68176 
 H                    -2.5848    1.20305   1.02927 
 O                    -2.21776  -0.2827   -0.3556 
 O                    -1.38512  -0.93018   0.53706 
 H                    -0.32786  -0.8395    0.05398 
 C                     3.12061   0.40771  -0.09498 
 H                     3.05595   1.01489  -0.99805 
 H                     3.72942   0.94363   0.63278 
 H                     3.63415  -0.51899  -0.35131 
 
 Add virtual bond connecting atoms H13        and O12        Dist= 2.20D+00.
 Add virtual bond connecting atoms H13        and C4         Dist= 2.55D+00.

 GradGradGradGradGradGradGradGradGradGradGradGradGradGradGradGradGradGrad
 Berny optimization.
 Initialization pass.
                           ----------------------------
                           !    Initial Parameters    !
                           ! (Angstroms and Degrees)  !
 --------------------------                            --------------------------
 ! Name  Definition              Value          Derivative Info.                !
 --------------------------------------------------------------------------------
 ! R1    R(1,2)                  1.0914         calculate D2E/DX2 analytically  !
 ! R2    R(1,3)                  1.0911         calculate D2E/DX2 analytically  !
 ! R3    R(1,4)                  1.5021         calculate D2E/DX2 analytically  !
 ! R4    R(1,14)                 1.5323         calculate D2E/DX2 analytically  !
 ! R5    R(4,5)                  1.0887         calculate D2E/DX2 analytically  !
 ! R6    R(4,6)                  1.0875         calculate D2E/DX2 analytically  !
 ! R7    R(4,13)                 1.3519         calculate D2E/DX2 analytically  !
 ! R8    R(7,8)                  1.0933         calculate D2E/DX2 analytically  !
 ! R9    R(7,9)                  1.0884         calculate D2E/DX2 analytically  !
 ! R10   R(7,10)                 1.0899         calculate D2E/DX2 analytically  !
 ! R11   R(7,11)                 1.412          calculate D2E/DX2 analytically  !
 ! R12   R(11,12)                1.3818         calculate D2E/DX2 analytically  !
 ! R13   R(12,13)                1.1659         calculate D2E/DX2 analytically  !
 ! R14   R(14,15)                1.0901         calculate D2E/DX2 analytically  !
 ! R15   R(14,16)                1.0897         calculate D2E/DX2 analytically  !
 ! R16   R(14,17)                1.09           calculate D2E/DX2 analytically  !
 ! A1    A(2,1,3)              106.7183         calculate D2E/DX2 analytically  !
 ! A2    A(2,1,4)              109.8615         calculate D2E/DX2 analytically  !
 ! A3    A(2,1,14)             109.4781         calculate D2E/DX2 analytically  !
 ! A4    A(3,1,4)              109.75           calculate D2E/DX2 analytically  !
 ! A5    A(3,1,14)             109.3786         calculate D2E/DX2 analytically  !
 ! A6    A(4,1,14)             111.5333         calculate D2E/DX2 analytically  !
 ! A7    A(1,4,5)              116.1027         calculate D2E/DX2 analytically  !
 ! A8    A(1,4,6)              115.8271         calculate D2E/DX2 analytically  !
 ! A9    A(1,4,13)             107.4184         calculate D2E/DX2 analytically  !
 ! A10   A(5,4,6)              112.6026         calculate D2E/DX2 analytically  !
 ! A11   A(5,4,13)             100.5748         calculate D2E/DX2 analytically  !
 ! A12   A(6,4,13)             101.8109         calculate D2E/DX2 analytically  !
 ! A13   A(8,7,9)              109.8516         calculate D2E/DX2 analytically  !
 ! A14   A(8,7,10)             109.734          calculate D2E/DX2 analytically  !
 ! A15   A(8,7,11)             110.4701         calculate D2E/DX2 analytically  !
 ! A16   A(9,7,10)             110.3781         calculate D2E/DX2 analytically  !
 ! A17   A(9,7,11)             105.8361         calculate D2E/DX2 analytically  !
 ! A18   A(10,7,11)            110.5108         calculate D2E/DX2 analytically  !
 ! A19   A(7,11,12)            108.1531         calculate D2E/DX2 analytically  !
 ! A20   A(11,12,13)           104.0234         calculate D2E/DX2 analytically  !
 ! A21   A(1,14,15)            110.8034         calculate D2E/DX2 analytically  !
 ! A22   A(1,14,16)            110.9309         calculate D2E/DX2 analytically  !
 ! A23   A(1,14,17)            110.7498         calculate D2E/DX2 analytically  !
 ! A24   A(15,14,16)           108.208          calculate D2E/DX2 analytically  !
 ! A25   A(15,14,17)           107.8579         calculate D2E/DX2 analytically  !
 ! A26   A(16,14,17)           108.1762         calculate D2E/DX2 analytically  !
 ! A27   L(4,13,12,8,-1)       175.0726         calculate D2E/DX2 analytically  !
 ! A28   L(4,13,12,8,-2)       179.9413         calculate D2E/DX2 analytically  !
 ! D1    D(2,1,4,5)             52.8677         calculate D2E/DX2 analytically  !
 ! D2    D(2,1,4,6)           -171.6837         calculate D2E/DX2 analytically  !
 ! D3    D(2,1,4,13)           -58.7184         calculate D2E/DX2 analytically  !
 ! D4    D(3,1,4,5)            169.9115         calculate D2E/DX2 analytically  !
 ! D5    D(3,1,4,6)            -54.6399         calculate D2E/DX2 analytically  !
 ! D6    D(3,1,4,13)            58.3254         calculate D2E/DX2 analytically  !
 ! D7    D(14,1,4,5)           -68.7114         calculate D2E/DX2 analytically  !
 ! D8    D(14,1,4,6)            66.7373         calculate D2E/DX2 analytically  !
 ! D9    D(14,1,4,13)          179.7025         calculate D2E/DX2 analytically  !
 ! D10   D(2,1,14,15)          -61.9716         calculate D2E/DX2 analytically  !
 ! D11   D(2,1,14,16)           58.2399         calculate D2E/DX2 analytically  !
 ! D12   D(2,1,14,17)          178.3758         calculate D2E/DX2 analytically  !
 ! D13   D(3,1,14,15)         -178.5779         calculate D2E/DX2 analytically  !
 ! D14   D(3,1,14,16)          -58.3665         calculate D2E/DX2 analytically  !
 ! D15   D(3,1,14,17)           61.7694         calculate D2E/DX2 analytically  !
 ! D16   D(4,1,14,15)           59.8294         calculate D2E/DX2 analytically  !
 ! D17   D(4,1,14,16)         -179.9591         calculate D2E/DX2 analytically  !
 ! D18   D(4,1,14,17)          -59.8232         calculate D2E/DX2 analytically  !
 ! D19   D(1,4,12,11)          120.6033         calculate D2E/DX2 analytically  !
 ! D20   D(5,4,12,11)           -0.281          calculate D2E/DX2 analytically  !
 ! D21   D(6,4,12,11)         -116.4079         calculate D2E/DX2 analytically  !
 ! D22   D(8,7,11,12)           65.188          calculate D2E/DX2 analytically  !
 ! D23   D(9,7,11,12)         -175.9528         calculate D2E/DX2 analytically  !
 ! D24   D(10,7,11,12)         -56.4436         calculate D2E/DX2 analytically  !
 ! D25   D(7,11,12,13)         -88.7574         calculate D2E/DX2 analytically  !
 --------------------------------------------------------------------------------
 Trust Radius=3.00D-01 FncErr=1.00D-07 GrdErr=1.00D-07 EigMax=2.50D+02 EigMin=1.00D-04
 Number of steps in this run=    102 maximum allowed number of steps=    102.
 Search for a saddle point of order  1.
 GradGradGradGradGradGradGradGradGradGradGradGradGradGradGradGradGradGrad

                          Input orientation:                          
 ---------------------------------------------------------------------
 Center     Atomic      Atomic             Coordinates (Angstroms)
 Number     Number       Type             X           Y           Z
 ---------------------------------------------------------------------
      1          6           0        1.724849    0.117431    0.466744
      2          1           0        1.241239    1.056078    0.742885
      3          1           0        1.817766   -0.468972    1.382185
      4          6           0        0.874022   -0.622330   -0.525738
      5          1           0        0.571554   -0.062165   -1.408916
      6          1           0        1.193393   -1.634718   -0.761983
      7          6           0       -2.261066    1.084297   -0.004634
      8          1           0       -1.278636    1.544887   -0.139079
      9          1           0       -2.979709    1.542155   -0.681755
     10          1           0       -2.584801    1.203047    1.029267
     11          8           0       -2.217757   -0.282697   -0.355597
     12          8           0       -1.385115   -0.930177    0.537055
     13          1           0       -0.327861   -0.839500    0.053983
     14          6           0        3.120614    0.407711   -0.094983
     15          1           0        3.055946    1.014885   -0.998046
     16          1           0        3.729423    0.943628    0.632777
     17          1           0        3.634149   -0.518987   -0.351313
 ---------------------------------------------------------------------
                    Distance matrix (angstroms):
                    1          2          3          4          5
     1  C    0.000000
     2  H    1.091417   0.000000
     3  H    1.091116   1.751247   0.000000
     4  C    1.502056   2.135721   2.134090   0.000000
     5  H    2.209173   2.515789   3.083631   1.088703   0.000000
     6  H    2.205049   3.083391   2.519179   1.087538   1.810560
     7  C    4.128504   3.581302   4.579605   3.607340   3.363052
     8  H    3.380174   2.714142   3.994694   3.079005   2.760128
     9  H    5.047946   4.481325   5.596449   4.422734   3.964098
    10  H    4.479741   3.839557   4.722583   4.208741   4.184265
    11  O    4.047282   3.868286   4.397730   3.115027   2.989711
    12  O    3.282423   3.299289   3.344458   2.515551   2.892888
    13  H    2.302109   2.555362   2.550515   1.351947   1.885012
    14  C    1.532305   2.157418   2.155925   2.508727   2.906013
    15  H    2.173213   2.515094   3.066011   2.768454   2.738805
    16  H    2.174508   2.493156   2.492285   3.456544   3.892591
    17  H    2.172481   3.066613   2.511327   2.767563   3.272109
                    6          7          8          9         10
     6  H    0.000000
     7  C    4.460931   0.000000
     8  H    4.075393   1.093338   0.000000
     9  H    5.245354   1.088382   1.785540   0.000000
    10  H    5.053339   1.089889   1.785484   1.788447   0.000000
    11  O    3.691755   1.411993   2.066130   2.004254   2.063978
    12  O    2.971966   2.262482   2.567964   3.184439   2.496430
    13  H    1.900628   2.727950   2.574208   3.639490   3.196397
    14  C    2.886275   5.424796   4.544064   6.232592   5.869264
    15  H    3.247341   5.409464   4.450542   6.066893   5.996952
    16  H    3.876167   6.025947   5.102737   6.862848   6.331977
    17  H    2.714921   6.119172   5.332924   6.935461   6.598995
                   11         12         13         14         15
    11  O    0.000000
    12  O    1.381793   0.000000
    13  H    2.012335   1.165919   0.000000
    14  C    5.389136   4.742469   3.670110   0.000000
    15  H    5.468858   5.085551   3.999457   1.090122   0.000000
    16  H    6.152211   5.447826   4.469463   1.089720   1.765852
    17  H    5.856676   5.113833   3.995562   1.090042   1.762199
                   16         17
    16  H    0.000000
    17  H    1.765433   0.000000
 Stoichiometry    C4H11O2(2)
 Framework group  C1[X(C4H11O2)]
 Deg. of freedom    45
 Full point group                 C1      NOp   1
 Largest Abelian subgroup         C1      NOp   1
 Largest concise Abelian subgroup C1      NOp   1
                         Standard orientation:                         
 ---------------------------------------------------------------------
 Center     Atomic      Atomic             Coordinates (Angstroms)
 Number     Number       Type             X           Y           Z
 ---------------------------------------------------------------------
      1          6           0        1.724849    0.117431    0.466744
      2          1           0        1.241239    1.056078    0.742885
      3          1           0        1.817766   -0.468972    1.382185
      4          6           0        0.874022   -0.622330   -0.525738
      5          1           0        0.571554   -0.062165   -1.408916
      6          1           0        1.193393   -1.634718   -0.761983
      7          6           0       -2.261066    1.084297   -0.004634
      8          1           0       -1.278636    1.544887   -0.139079
      9          1           0       -2.979709    1.542155   -0.681755
     10          1           0       -2.584801    1.203047    1.029267
     11          8           0       -2.217757   -0.282697   -0.355597
     12          8           0       -1.385115   -0.930177    0.537055
     13          1           0       -0.327861   -0.839500    0.053983
     14          6           0        3.120614    0.407711   -0.094983
     15          1           0        3.055946    1.014885   -0.998046
     16          1           0        3.729423    0.943628    0.632777
     17          1           0        3.634149   -0.518987   -0.351313
 ---------------------------------------------------------------------
 Rotational constants (GHZ):           7.2371480           1.2223783           1.1441547
 Standard basis: CC-pVTZ (5D, 7F)
 There are   375 symmetry adapted cartesian basis functions of A   symmetry.
 There are   334 symmetry adapted basis functions of A   symmetry.
   334 basis functions,   499 primitive gaussians,   375 cartesian basis functions
    26 alpha electrons       25 beta electrons
       nuclear repulsion energy       247.9311089393 Hartrees.
 NAtoms=   17 NActive=   17 NUniq=   17 SFac= 1.00D+00 NAtFMM=   60 NAOKFM=F Big=F
 Integral buffers will be    131072 words long.
 Raffenetti 2 integral format.
 Two-electron integral symmetry is turned on.
 Nuclear repulsion after empirical dispersion term =      247.9233248923 Hartrees.
 One-electron integrals computed using PRISM.
 NBasis=   334 RedAO= T EigKep=  7.67D-04  NBF=   334
 NBsUse=   334 1.00D-06 EigRej= -1.00D+00 NBFU=   334
 ExpMin= 1.03D-01 ExpMax= 1.53D+04 ExpMxC= 5.22D+02 IAcc=3 IRadAn=         5 AccDes= 0.00D+00
 Harris functional with IExCor=  419 and IRadAn=       5 diagonalized for initial guess.
 HarFok:  IExCor=  419 AccDes= 0.00D+00 IRadAn=         5 IDoV= 1 UseB2=F ITyADJ=14
 ICtDFT=  3500011 ScaDFX=  1.000000  1.000000  1.000000  1.000000
 FoFCou: FMM=F IPFlag=           0 FMFlag=      100000 FMFlg1=           0
         NFxFlg=           0 DoJE=T BraDBF=F KetDBF=T FulRan=T
         wScrn=  0.000000 ICntrl=       500 IOpCl=  0 I1Cent=   200000004 NGrid=           0
         NMat0=    1 NMatS0=      1 NMatT0=    0 NMatD0=    1 NMtDS0=    0 NMtDT0=    0
 Petite list used in FoFCou.
 Initial guess <Sx>= 0.0000 <Sy>= 0.0000 <Sz>= 0.5000 <S**2>= 0.7500 S= 0.5000
 Requested convergence on RMS density matrix=1.00D-08 within 128 cycles.
 Requested convergence on MAX density matrix=1.00D-06.
 Requested convergence on             energy=1.00D-06.
 No special actions if energy rises.
 Integral accuracy reduced to 1.0D-05 until final iterations.
 Initial convergence to 1.0D-05 achieved.  Increase integral accuracy.
 SCF Done:  E(UB2PLYPD3) =  -308.790451730     A.U. after   19 cycles
            NFock= 19  Conv=0.28D-08     -V/T= 2.0042
 <Sx>= 0.0000 <Sy>= 0.0000 <Sz>= 0.5000 <S**2>= 0.7683 S= 0.5091
 <L.S>=  0.00000000000    
 Annihilation of the first spin contaminant:
 S**2 before annihilation     0.7683,   after     0.7501
 DoSCS=T DFT=T ScalE2(SS,OS)=  0.270000  0.270000
 ExpMin= 1.03D-01 ExpMax= 1.53D+04 ExpMxC= 5.22D+02 IAcc=3 IRadAn=         5 AccDes= 0.00D+00
 HarFok:  IExCor=  205 AccDes= 0.00D+00 IRadAn=         5 IDoV=-2 UseB2=F ITyADJ=14
 ICtDFT= 12500011 ScaDFX=  1.000000  1.000000  1.000000  1.000000
 Range of M.O.s used for correlation:     7   334
 NBasis=   334 NAE=    26 NBE=    25 NFC=     6 NFV=     0
 NROrb=    328 NOA=    20 NOB=    19 NVA=   308 NVB=   309

 **** Warning!!: The largest alpha MO coefficient is  0.12052883D+02


 **** Warning!!: The largest beta MO coefficient is  0.12053028D+02

 DoSCS=T DFT=T ScalE2(SS,OS)=  0.270000  0.270000
 Disk-based method using ON**2 memory for 20 occupieds at a time.
 Permanent disk used for amplitudes=    91502950 words.
 Estimated scratch disk usage=  1761567554 words.
 Actual    scratch disk usage=  1703321410 words.
 JobTyp=2 Pass  1:  I=   7 to  26 NPSUse= 40 ParTrn=T ParDer=T DoDerP=T.
 (rs|ai) integrals will be sorted in core.
 Actual    scratch disk usage=  1703321410 words.
 JobTyp=3 Pass  1:  I=   7 to  25 NPSUse= 40 ParTrn=T ParDer=T DoDerP=T.
 (rs|ai) integrals will be sorted in core.
 Spin components of T(2) and E(2):
     alpha-alpha T2 =       0.6368480545D-01 E2=     -0.4711450533D-01
     alpha-beta  T2 =       0.3933313527D+00 E2=     -0.2984465421D+00
     beta-beta   T2 =       0.6834782646D-01 E2=     -0.4561427324D-01
 (S**2,0)=  0.76828D+00           (S**2,1)=  0.74251D+00
 Scaling Projection term by:   0.270000
 E(PUHF)=      -0.30879669400D+03        E(PMP2)=      -0.30918213015D+03
 E2(B2PLYPD3) =    -0.3911753206D+00 E(B2PLYPD3) =    -0.30918162705024D+03
 G2DrvN: will do    18 centers at a time, making    1 passes.
 Calling FoFCou, ICntrl=  3107 FMM=F I1Cent=   0 AccDes= 0.00D+00.
 End of G2Drv F.D. properties file   721 does not exist.
 End of G2Drv F.D. properties file   722 does not exist.
 End of G2Drv F.D. properties file   788 does not exist.
          IDoAtm=11111111111111111
          Differentiating once with respect to electric field.
                with respect to dipole field.
          Differentiating once with respect to nuclear coordinates.
 Keep R1 and R2 ints in memory in canonical form, NReq=3176104348.
          There are    54 degrees of freedom in the 1st order CPHF.  IDoFFX=6 NUNeed=    54.
     51 vectors produced by pass  0 Test12= 2.91D-14 1.85D-09 XBig12= 8.19D+01 5.60D+00.
 AX will form    51 AO Fock derivatives at one time.
     51 vectors produced by pass  1 Test12= 2.91D-14 1.85D-09 XBig12= 5.77D+00 2.96D-01.
     51 vectors produced by pass  2 Test12= 2.91D-14 1.85D-09 XBig12= 3.46D-01 1.11D-01.
     51 vectors produced by pass  3 Test12= 2.91D-14 1.85D-09 XBig12= 4.97D-03 7.82D-03.
     51 vectors produced by pass  4 Test12= 2.91D-14 1.85D-09 XBig12= 4.97D-05 7.74D-04.
     51 vectors produced by pass  5 Test12= 2.91D-14 1.85D-09 XBig12= 5.57D-07 9.28D-05.
     49 vectors produced by pass  6 Test12= 2.91D-14 1.85D-09 XBig12= 4.34D-09 6.06D-06.
     15 vectors produced by pass  7 Test12= 2.91D-14 1.85D-09 XBig12= 2.55D-11 4.67D-07.
      3 vectors produced by pass  8 Test12= 2.91D-14 1.85D-09 XBig12= 1.70D-13 3.80D-08.
      1 vectors produced by pass  9 Test12= 2.91D-14 1.85D-09 XBig12= 1.26D-15 3.17D-09.
 InvSVY:  IOpt=1 It=  1 EMax= 3.55D-15
 Solved reduced A of dimension   374 with    54 vectors.
 End of Minotr F.D. properties file   721 does not exist.
 End of Minotr F.D. properties file   722 does not exist.
 End of Minotr F.D. properties file   788 does not exist.
 MDV= 10737418240.
 DoSCS=T DFT=T ScalE2(SS,OS)=  0.270000  0.270000
 Form MO integral derivatives with frozen-active canonical formalism.
 Discarding MO integrals.
 Reordered first order wavefunction length =    368623478
 In DefCFB: NBatch=  1 ICI= 26 ICA=309 LFMax= 78
            Large arrays: LIAPS=  7882233000 LIARS=  1476247500 words.
 In DefCFB: NBatch=  1 ICI= 26 ICA=309 LFMax= 78
            Large arrays: LIAPS=  7882233000 LIARS=  1476247500 words.
 Semi-Direct transformation.
 ModeAB=           4 MOrb=            26 LenV=   10734134899
 LASXX=    460751213 LTotXX=   460751213 LenRXX=   928395468
 LTotAB=   467644255 MaxLAS=   539172192 LenRXY=           0
 NonZer=  1389146681 LenScr=  2091891712 LnRSAI=   539172192
 LnScr1=   811930624 LExtra=           0 Total=   4371389996
 MaxDsk=          -1 SrtSym=           T ITran=            4
 JobTyp=1 Pass  1:  I=   1 to  26.
 (rs|ai) integrals will be sorted in core.
 ModeAB=           4 MOrb=            25 LenV=   10734134899
 LASXX=    443915925 LTotXX=   443915925 LenRXX=   826983225
 LTotAB=   383067300 MaxLAS=   518434800 LenRXY=           0
 NonZer=  1270899150 LenScr=  1913825280 LnRSAI=   518434800
 LnScr1=   780702720 LExtra=           0 Total=   4039946025
 MaxDsk=          -1 SrtSym=           T ITran=            4
 JobTyp=2 Pass  1:  I=   1 to  25.
 (rs|ai) integrals will be sorted in core.
 SymMOI:  orbitals are not symmetric.
 DoSCS=T DFT=T ScalE2(SS,OS)=  0.270000  0.270000
 Spin components of T(2) and E(2):
     alpha-alpha T2 =       0.6368480545D-01 E2=     -0.4711450533D-01
     alpha-beta  T2 =       0.3933313527D+00 E2=     -0.2984465421D+00
     beta-beta   T2 =       0.6834782646D-01 E2=     -0.4561427324D-01
 E2(B2PLYPD3) =    -0.3911753206D+00 E(B2PLYPD3) =    -0.30918162705024D+03
 (S**2,0)=  0.76828D+00           (S**2,1)=  0.74251D+00
 Scaling Projection term by:   0.270000
 E(PUHF)=      -0.30879669400D+03        E(PMP2)=      -0.30918213015D+03
          IDoAtm=11111111111111111
          Differentiating once with respect to electric field.
                with respect to dipole field.
          Differentiating once with respect to nuclear coordinates.
 Keep R1 and R2 ints in memory in canonical form, NReq=3176239665.
          There are     1 degrees of freedom in the 1st order CPHF.  IDoFFX=0 NUNeed=     1.
 LinEq1:  Iter=  0 NonCon=     1 RMS=8.65D-04 Max=6.35D-02 NDo=     1
 AX will form     1 AO Fock derivatives at one time.
 LinEq1:  Iter=  1 NonCon=     1 RMS=2.84D-04 Max=8.06D-03 NDo=     1
 LinEq1:  Iter=  2 NonCon=     1 RMS=1.57D-04 Max=8.97D-03 NDo=     1
 LinEq1:  Iter=  3 NonCon=     1 RMS=6.05D-05 Max=8.20D-04 NDo=     1
 LinEq1:  Iter=  4 NonCon=     1 RMS=3.14D-05 Max=7.58D-04 NDo=     1
 LinEq1:  Iter=  5 NonCon=     1 RMS=2.00D-05 Max=6.76D-04 NDo=     1
 LinEq1:  Iter=  6 NonCon=     1 RMS=1.24D-05 Max=3.88D-04 NDo=     1
 LinEq1:  Iter=  7 NonCon=     1 RMS=4.94D-06 Max=1.25D-04 NDo=     1
 LinEq1:  Iter=  8 NonCon=     1 RMS=2.26D-06 Max=3.55D-05 NDo=     1
 LinEq1:  Iter=  9 NonCon=     1 RMS=9.25D-07 Max=1.78D-05 NDo=     1
 LinEq1:  Iter= 10 NonCon=     1 RMS=3.48D-07 Max=8.60D-06 NDo=     1
 LinEq1:  Iter= 11 NonCon=     1 RMS=1.22D-07 Max=3.08D-06 NDo=     1
 LinEq1:  Iter= 12 NonCon=     1 RMS=3.58D-08 Max=7.53D-07 NDo=     1
 LinEq1:  Iter= 13 NonCon=     1 RMS=1.28D-08 Max=2.96D-07 NDo=     1
 LinEq1:  Iter= 14 NonCon=     1 RMS=6.25D-09 Max=2.06D-07 NDo=     1
 LinEq1:  Iter= 15 NonCon=     1 RMS=2.31D-09 Max=1.09D-07 NDo=     1
 LinEq1:  Iter= 16 NonCon=     1 RMS=7.88D-10 Max=5.27D-08 NDo=     1
 LinEq1:  Iter= 17 NonCon=     1 RMS=2.58D-10 Max=1.34D-08 NDo=     1
 LinEq1:  Iter= 18 NonCon=     1 RMS=9.99D-11 Max=3.58D-09 NDo=     1
 LinEq1:  Iter= 19 NonCon=     0 RMS=3.79D-11 Max=7.79D-10 NDo=     1
 Linear equations converged to 1.000D-10 1.000D-09 after    19 iterations.
 End of Minotr F.D. properties file   721 does not exist.
 End of Minotr F.D. properties file   722 does not exist.
 End of Minotr F.D. properties file   788 does not exist.
 Symmetrizing basis deriv contribution to polar:
 IMax=3 JMax=2 DiffMx= 0.00D+00
 G2DrvN: will do    18 centers at a time, making    1 passes.
 Calling FoFCou, ICntrl=  3107 FMM=F I1Cent=   0 AccDes= 0.00D+00.
 End of G2Drv F.D. properties file   721 does not exist.
 End of G2Drv F.D. properties file   722 does not exist.
 End of G2Drv F.D. properties file   788 does not exist.
 DoSCS=T DFT=T ScalE2(SS,OS)=  0.270000  0.270000
 R2 and R3 integrals will be kept in memory, NReq=  4996899000.
 DD1Dir will call FoFMem   1 times, MxPair=      1926
 NAB=   650 NAA=   325 NBB=   300.
 Discarding MO integrals.

 **********************************************************************

            Population analysis using the SCF Density.

 **********************************************************************

 Orbital symmetries:
 Alpha Orbitals:
       Occupied  (A) (A) (A) (A) (A) (A) (A) (A) (A) (A) (A) (A)
                 (A) (A) (A) (A) (A) (A) (A) (A) (A) (A) (A) (A)
                 (A) (A)
       Virtual   (A) (A) (A) (A) (A) (A) (A) (A) (A) (A) (A) (A)
                 (A) (A) (A) (A) (A) (A) (A) (A) (A) (A) (A) (A)
                 (A) (A) (A) (A) (A) (A) (A) (A) (A) (A) (A) (A)
                 (A) (A) (A) (A) (A) (A) (A) (A) (A) (A) (A) (A)
                 (A) (A) (A) (A) (A) (A) (A) (A) (A) (A) (A) (A)
                 (A) (A) (A) (A) (A) (A) (A) (A) (A) (A) (A) (A)
                 (A) (A) (A) (A) (A) (A) (A) (A) (A) (A) (A) (A)
                 (A) (A) (A) (A) (A) (A) (A) (A) (A) (A) (A) (A)
                 (A) (A) (A) (A) (A) (A) (A) (A) (A) (A) (A) (A)
                 (A) (A) (A) (A) (A) (A) (A) (A) (A) (A) (A) (A)
                 (A) (A) (A) (A) (A) (A) (A) (A) (A) (A) (A) (A)
                 (A) (A) (A) (A) (A) (A) (A) (A) (A) (A) (A) (A)
                 (A) (A) (A) (A) (A) (A) (A) (A) (A) (A) (A) (A)
                 (A) (A) (A) (A) (A) (A) (A) (A) (A) (A) (A) (A)
                 (A) (A) (A) (A) (A) (A) (A) (A) (A) (A) (A) (A)
                 (A) (A) (A) (A) (A) (A) (A) (A) (A) (A) (A) (A)
                 (A) (A) (A) (A) (A) (A) (A) (A) (A) (A) (A) (A)
                 (A) (A) (A) (A) (A) (A) (A) (A) (A) (A) (A) (A)
                 (A) (A) (A) (A) (A) (A) (A) (A) (A) (A) (A) (A)
                 (A) (A) (A) (A) (A) (A) (A) (A) (A) (A) (A) (A)
                 (A) (A) (A) (A) (A) (A) (A) (A) (A) (A) (A) (A)
                 (A) (A) (A) (A) (A) (A) (A) (A) (A) (A) (A) (A)
                 (A) (A) (A) (A) (A) (A) (A) (A) (A) (A) (A) (A)
                 (A) (A) (A) (A) (A) (A) (A) (A) (A) (A) (A) (A)
                 (A) (A) (A) (A) (A) (A) (A) (A) (A) (A) (A) (A)
                 (A) (A) (A) (A) (A) (A) (A) (A)
 Beta  Orbitals:
       Occupied  (A) (A) (A) (A) (A) (A) (A) (A) (A) (A) (A) (A)
                 (A) (A) (A) (A) (A) (A) (A) (A) (A) (A) (A) (A)
                 (A)
       Virtual   (A) (A) (A) (A) (A) (A) (A) (A) (A) (A) (A) (A)
                 (A) (A) (A) (A) (A) (A) (A) (A) (A) (A) (A) (A)
                 (A) (A) (A) (A) (A) (A) (A) (A) (A) (A) (A) (A)
                 (A) (A) (A) (A) (A) (A) (A) (A) (A) (A) (A) (A)
                 (A) (A) (A) (A) (A) (A) (A) (A) (A) (A) (A) (A)
                 (A) (A) (A) (A) (A) (A) (A) (A) (A) (A) (A) (A)
                 (A) (A) (A) (A) (A) (A) (A) (A) (A) (A) (A) (A)
                 (A) (A) (A) (A) (A) (A) (A) (A) (A) (A) (A) (A)
                 (A) (A) (A) (A) (A) (A) (A) (A) (A) (A) (A) (A)
                 (A) (A) (A) (A) (A) (A) (A) (A) (A) (A) (A) (A)
                 (A) (A) (A) (A) (A) (A) (A) (A) (A) (A) (A) (A)
                 (A) (A) (A) (A) (A) (A) (A) (A) (A) (A) (A) (A)
                 (A) (A) (A) (A) (A) (A) (A) (A) (A) (A) (A) (A)
                 (A) (A) (A) (A) (A) (A) (A) (A) (A) (A) (A) (A)
                 (A) (A) (A) (A) (A) (A) (A) (A) (A) (A) (A) (A)
                 (A) (A) (A) (A) (A) (A) (A) (A) (A) (A) (A) (A)
                 (A) (A) (A) (A) (A) (A) (A) (A) (A) (A) (A) (A)
                 (A) (A) (A) (A) (A) (A) (A) (A) (A) (A) (A) (A)
                 (A) (A) (A) (A) (A) (A) (A) (A) (A) (A) (A) (A)
                 (A) (A) (A) (A) (A) (A) (A) (A) (A) (A) (A) (A)
                 (A) (A) (A) (A) (A) (A) (A) (A) (A) (A) (A) (A)
                 (A) (A) (A) (A) (A) (A) (A) (A) (A) (A) (A) (A)
                 (A) (A) (A) (A) (A) (A) (A) (A) (A) (A) (A) (A)
                 (A) (A) (A) (A) (A) (A) (A) (A) (A) (A) (A) (A)
                 (A) (A) (A) (A) (A) (A) (A) (A) (A) (A) (A) (A)
                 (A) (A) (A) (A) (A) (A) (A) (A) (A)
 The electronic state is 2-A.
 Alpha  occ. eigenvalues --  -19.78537 -19.78409 -10.66015 -10.63453 -10.62243
 Alpha  occ. eigenvalues --  -10.61216  -1.28850  -1.01858  -0.91732  -0.80548
 Alpha  occ. eigenvalues --   -0.77364  -0.69344  -0.61353  -0.56496  -0.55078
 Alpha  occ. eigenvalues --   -0.54752  -0.51259  -0.49309  -0.46957  -0.46019
 Alpha  occ. eigenvalues --   -0.44234  -0.42097  -0.40637  -0.36767  -0.36200
 Alpha  occ. eigenvalues --   -0.29787
 Alpha virt. eigenvalues --    0.06983   0.09450   0.11063   0.11613   0.12980
 Alpha virt. eigenvalues --    0.14182   0.15253   0.15887   0.16393   0.17954
 Alpha virt. eigenvalues --    0.18697   0.21240   0.22849   0.24923   0.27709
 Alpha virt. eigenvalues --    0.30032   0.30469   0.32062   0.33801   0.34447
 Alpha virt. eigenvalues --    0.35571   0.39401   0.40764   0.42030   0.46005
 Alpha virt. eigenvalues --    0.48039   0.48104   0.49800   0.51253   0.51689
 Alpha virt. eigenvalues --    0.52429   0.53106   0.53804   0.54050   0.54743
 Alpha virt. eigenvalues --    0.55753   0.56527   0.57585   0.58952   0.60556
 Alpha virt. eigenvalues --    0.61515   0.65057   0.68229   0.68832   0.71830
 Alpha virt. eigenvalues --    0.75725   0.76762   0.78858   0.80372   0.81188
 Alpha virt. eigenvalues --    0.84502   0.86228   0.88883   0.89494   0.92736
 Alpha virt. eigenvalues --    0.93955   0.95394   0.97239   0.98654   1.03207
 Alpha virt. eigenvalues --    1.03969   1.06039   1.07409   1.08126   1.10226
 Alpha virt. eigenvalues --    1.11377   1.11704   1.13528   1.15174   1.16280
 Alpha virt. eigenvalues --    1.17218   1.18248   1.21231   1.22246   1.22713
 Alpha virt. eigenvalues --    1.24694   1.26750   1.27488   1.28877   1.31877
 Alpha virt. eigenvalues --    1.33752   1.34868   1.35354   1.37083   1.38778
 Alpha virt. eigenvalues --    1.39730   1.40719   1.40920   1.43195   1.46200
 Alpha virt. eigenvalues --    1.46872   1.49803   1.51200   1.53526   1.56417
 Alpha virt. eigenvalues --    1.60631   1.61422   1.62841   1.64575   1.67126
 Alpha virt. eigenvalues --    1.71768   1.74912   1.76236   1.79928   1.87747
 Alpha virt. eigenvalues --    1.94387   2.02117   2.05437   2.12189   2.18573
 Alpha virt. eigenvalues --    2.22497   2.29778   2.32577   2.37372   2.38548
 Alpha virt. eigenvalues --    2.40043   2.41153   2.42838   2.45994   2.48144
 Alpha virt. eigenvalues --    2.51564   2.55180   2.56279   2.60231   2.62324
 Alpha virt. eigenvalues --    2.64681   2.66338   2.66836   2.70519   2.75128
 Alpha virt. eigenvalues --    2.76632   2.79031   2.81308   2.86254   2.89450
 Alpha virt. eigenvalues --    2.90434   2.91145   2.92552   2.93478   2.94846
 Alpha virt. eigenvalues --    2.95246   2.96748   3.00763   3.01354   3.03705
 Alpha virt. eigenvalues --    3.04842   3.07980   3.10255   3.10660   3.12840
 Alpha virt. eigenvalues --    3.15007   3.15909   3.16343   3.17563   3.19657
 Alpha virt. eigenvalues --    3.20347   3.21265   3.22788   3.23221   3.24788
 Alpha virt. eigenvalues --    3.27141   3.29611   3.30008   3.33345   3.35971
 Alpha virt. eigenvalues --    3.40525   3.41092   3.41756   3.43906   3.45947
 Alpha virt. eigenvalues --    3.49418   3.50481   3.51009   3.52061   3.53336
 Alpha virt. eigenvalues --    3.54025   3.55586   3.57866   3.58585   3.61183
 Alpha virt. eigenvalues --    3.62937   3.64116   3.66129   3.66745   3.72038
 Alpha virt. eigenvalues --    3.73967   3.79497   3.80690   3.85336   3.85631
 Alpha virt. eigenvalues --    3.87519   3.88291   3.88891   3.90122   3.91177
 Alpha virt. eigenvalues --    3.93427   3.94496   3.96005   3.97301   3.98558
 Alpha virt. eigenvalues --    3.99650   4.02362   4.04016   4.04519   4.07230
 Alpha virt. eigenvalues --    4.08123   4.09429   4.10372   4.12100   4.15046
 Alpha virt. eigenvalues --    4.16188   4.18246   4.20820   4.21940   4.23312
 Alpha virt. eigenvalues --    4.24507   4.25552   4.28939   4.29445   4.30607
 Alpha virt. eigenvalues --    4.34440   4.35491   4.38376   4.38967   4.41919
 Alpha virt. eigenvalues --    4.42799   4.44719   4.45336   4.48306   4.53680
 Alpha virt. eigenvalues --    4.54939   4.61490   4.65254   4.65913   4.68840
 Alpha virt. eigenvalues --    4.73452   4.78113   4.79959   4.82347   4.87367
 Alpha virt. eigenvalues --    4.89844   4.93111   4.94571   4.98019   4.99643
 Alpha virt. eigenvalues --    4.99819   5.01415   5.02382   5.04706   5.05560
 Alpha virt. eigenvalues --    5.06825   5.07155   5.16456   5.17309   5.21887
 Alpha virt. eigenvalues --    5.28023   5.28532   5.30343   5.33706   5.34719
 Alpha virt. eigenvalues --    5.35872   5.37848   5.39588   5.40301   5.45017
 Alpha virt. eigenvalues --    5.46349   5.49061   5.49813   5.50168   5.52723
 Alpha virt. eigenvalues --    5.59585   5.63270   5.66341   5.67103   5.70677
 Alpha virt. eigenvalues --    5.73523   5.79214   5.88264   5.94973   5.97494
 Alpha virt. eigenvalues --    6.04729   6.05696   6.05871   6.10173   6.10721
 Alpha virt. eigenvalues --    6.12468   6.28170   6.32081   6.42200   6.45328
 Alpha virt. eigenvalues --    6.68276   6.75962   6.77486   6.84879   6.97323
 Alpha virt. eigenvalues --    7.06265   7.07984   7.19497   7.43955   7.45534
 Alpha virt. eigenvalues --    7.61768   7.73420   9.95142  10.80809  12.53124
 Alpha virt. eigenvalues --   13.15445  13.42800  13.65473
  Beta  occ. eigenvalues --  -19.78363 -19.76750 -10.66027 -10.62307 -10.62210
  Beta  occ. eigenvalues --  -10.61102  -1.26898  -0.98924  -0.90543  -0.78652
  Beta  occ. eigenvalues --   -0.76613  -0.68286  -0.57932  -0.55485  -0.54705
  Beta  occ. eigenvalues --   -0.54093  -0.50232  -0.46798  -0.46516  -0.44084
  Beta  occ. eigenvalues --   -0.43327  -0.41688  -0.40461  -0.35076  -0.33029
  Beta virt. eigenvalues --   -0.04350   0.07153   0.09611   0.11379   0.11808
  Beta virt. eigenvalues --    0.13041   0.14713   0.15350   0.15947   0.16592
  Beta virt. eigenvalues --    0.18097   0.18911   0.21896   0.23302   0.25273
  Beta virt. eigenvalues --    0.28090   0.30232   0.30668   0.32214   0.34389
  Beta virt. eigenvalues --    0.35182   0.35835   0.39816   0.41399   0.42862
  Beta virt. eigenvalues --    0.46196   0.48302   0.48731   0.50222   0.51529
  Beta virt. eigenvalues --    0.52161   0.52609   0.53325   0.54036   0.54911
  Beta virt. eigenvalues --    0.55778   0.56659   0.57342   0.57833   0.59829
  Beta virt. eigenvalues --    0.60813   0.61990   0.65541   0.68553   0.69070
  Beta virt. eigenvalues --    0.72307   0.76472   0.77075   0.79252   0.80496
  Beta virt. eigenvalues --    0.81679   0.84507   0.86527   0.89487   0.89825
  Beta virt. eigenvalues --    0.92899   0.94519   0.95761   0.97260   0.98978
  Beta virt. eigenvalues --    1.03298   1.04135   1.06194   1.07700   1.08853
  Beta virt. eigenvalues --    1.10468   1.11553   1.11883   1.13662   1.15325
  Beta virt. eigenvalues --    1.16484   1.17383   1.18335   1.21676   1.22538
  Beta virt. eigenvalues --    1.23041   1.24948   1.26885   1.27582   1.29189
  Beta virt. eigenvalues --    1.32229   1.34135   1.35334   1.35736   1.37571
  Beta virt. eigenvalues --    1.38851   1.39920   1.41041   1.41328   1.43510
  Beta virt. eigenvalues --    1.46566   1.46972   1.50149   1.51748   1.53889
  Beta virt. eigenvalues --    1.56820   1.60985   1.61918   1.63041   1.64718
  Beta virt. eigenvalues --    1.67799   1.72236   1.75298   1.76810   1.80254
  Beta virt. eigenvalues --    1.90525   1.95437   2.02753   2.06385   2.12519
  Beta virt. eigenvalues --    2.20663   2.22905   2.30425   2.32978   2.37614
  Beta virt. eigenvalues --    2.39076   2.40363   2.41700   2.43739   2.46185
  Beta virt. eigenvalues --    2.48621   2.51738   2.55323   2.56848   2.60635
  Beta virt. eigenvalues --    2.62631   2.65401   2.66788   2.67708   2.70797
  Beta virt. eigenvalues --    2.75319   2.77465   2.79189   2.81561   2.86344
  Beta virt. eigenvalues --    2.89794   2.90762   2.91674   2.92598   2.94173
  Beta virt. eigenvalues --    2.95333   2.96390   2.97161   3.01121   3.02046
  Beta virt. eigenvalues --    3.04061   3.04929   3.08384   3.10556   3.10925
  Beta virt. eigenvalues --    3.12995   3.15240   3.16139   3.16634   3.17911
  Beta virt. eigenvalues --    3.19979   3.20676   3.21599   3.23525   3.24080
  Beta virt. eigenvalues --    3.25436   3.27334   3.29670   3.30089   3.35119
  Beta virt. eigenvalues --    3.36074   3.40581   3.41760   3.42004   3.44084
  Beta virt. eigenvalues --    3.46303   3.49775   3.50878   3.51495   3.52351
  Beta virt. eigenvalues --    3.53463   3.54329   3.55821   3.58018   3.59101
  Beta virt. eigenvalues --    3.61561   3.63136   3.64260   3.66288   3.66857
  Beta virt. eigenvalues --    3.72492   3.74200   3.79857   3.81039   3.85519
  Beta virt. eigenvalues --    3.85825   3.87547   3.88418   3.88739   3.90231
  Beta virt. eigenvalues --    3.91449   3.93488   3.94776   3.96207   3.97511
  Beta virt. eigenvalues --    3.98875   3.99554   4.02640   4.04223   4.04696
  Beta virt. eigenvalues --    4.07332   4.08215   4.09528   4.10502   4.12413
  Beta virt. eigenvalues --    4.15114   4.16271   4.18511   4.20849   4.22209
  Beta virt. eigenvalues --    4.23474   4.24580   4.25656   4.28950   4.30093
  Beta virt. eigenvalues --    4.30787   4.34946   4.35609   4.38378   4.39172
  Beta virt. eigenvalues --    4.42157   4.42903   4.44887   4.45660   4.48633
  Beta virt. eigenvalues --    4.54036   4.55492   4.62298   4.65725   4.66582
  Beta virt. eigenvalues --    4.69114   4.74074   4.78434   4.80282   4.82692
  Beta virt. eigenvalues --    4.87739   4.90380   4.93536   4.94709   4.98259
  Beta virt. eigenvalues --    4.99798   5.00004   5.01603   5.02536   5.05003
  Beta virt. eigenvalues --    5.05727   5.07319   5.07474   5.17101   5.17636
  Beta virt. eigenvalues --    5.22562   5.28800   5.29029   5.30609   5.34028
  Beta virt. eigenvalues --    5.35157   5.36156   5.38240   5.40351   5.40521
  Beta virt. eigenvalues --    5.45234   5.46672   5.49288   5.49987   5.50325
  Beta virt. eigenvalues --    5.52816   5.59810   5.63361   5.66657   5.67440
  Beta virt. eigenvalues --    5.71357   5.73954   5.79800   5.89878   5.95028
  Beta virt. eigenvalues --    5.97735   6.04843   6.05835   6.07053   6.10640
  Beta virt. eigenvalues --    6.11711   6.12537   6.28604   6.34272   6.42772
  Beta virt. eigenvalues --    6.46879   6.69134   6.78617   6.79826   6.86084
  Beta virt. eigenvalues --    6.99146   7.06818   7.09864   7.21779   7.44639
  Beta virt. eigenvalues --    7.47118   7.63392   7.74460   9.96128  10.81824
  Beta virt. eigenvalues --   12.53718  13.15898  13.42801  13.65562
          Condensed to atoms (all electrons):
               1          2          3          4          5          6
     1  C    4.863133   0.417775   0.415057   0.321351  -0.036769  -0.030776
     2  H    0.417775   0.595787  -0.034384  -0.038951  -0.004944   0.006299
     3  H    0.415057  -0.034384   0.587890  -0.034988   0.006415  -0.004841
     4  C    0.321351  -0.038951  -0.034988   5.166356   0.398009   0.400602
     5  H   -0.036769  -0.004944   0.006415   0.398009   0.552873  -0.026531
     6  H   -0.030776   0.006299  -0.004841   0.400602  -0.026531   0.539797
     7  C   -0.000599  -0.000213   0.000059  -0.004045  -0.000337   0.000086
     8  H   -0.001575  -0.001562   0.000133   0.001424  -0.003511  -0.000125
     9  H    0.000105   0.000073  -0.000007   0.000310  -0.000104   0.000004
    10  H    0.000107   0.000387  -0.000016  -0.000708   0.000457   0.000004
    11  O    0.000453   0.000199  -0.000065   0.004153   0.004864   0.000427
    12  O    0.006542   0.001281   0.000558  -0.086770  -0.001306   0.000745
    13  H   -0.011671  -0.002891  -0.001216   0.224505  -0.007546  -0.007726
    14  C    0.317234  -0.036913  -0.036703  -0.051339  -0.004139  -0.003358
    15  H   -0.035884  -0.005609   0.007377  -0.002782   0.002694  -0.000081
    16  H   -0.033306  -0.004177  -0.004568   0.007655  -0.000114  -0.000081
    17  H   -0.035417   0.007430  -0.005553  -0.003689  -0.000147   0.002936
               7          8          9         10         11         12
     1  C   -0.000599  -0.001575   0.000105   0.000107   0.000453   0.006542
     2  H   -0.000213  -0.001562   0.000073   0.000387   0.000199   0.001281
     3  H    0.000059   0.000133  -0.000007  -0.000016  -0.000065   0.000558
     4  C   -0.004045   0.001424   0.000310  -0.000708   0.004153  -0.086770
     5  H   -0.000337  -0.003511  -0.000104   0.000457   0.004864  -0.001306
     6  H    0.000086  -0.000125   0.000004   0.000004   0.000427   0.000745
     7  C    4.581104   0.388225   0.402424   0.410305   0.315270  -0.041061
     8  H    0.388225   0.711562  -0.036877  -0.065974  -0.051365  -0.006127
     9  H    0.402424  -0.036877   0.584664  -0.028837  -0.025582   0.006724
    10  H    0.410305  -0.065974  -0.028837   0.638522  -0.044280   0.005951
    11  O    0.315270  -0.051365  -0.025582  -0.044280   7.941580   0.063684
    12  O   -0.041061  -0.006127   0.006724   0.005951   0.063684   8.065785
    13  H    0.004366   0.005090  -0.001276   0.000873  -0.032050   0.196914
    14  C   -0.000015   0.000236   0.000010  -0.000011  -0.000037   0.000355
    15  H   -0.000002   0.000074   0.000000  -0.000004  -0.000010   0.000012
    16  H   -0.000001  -0.000016  -0.000000   0.000000   0.000001   0.000006
    17  H    0.000000  -0.000005   0.000000   0.000000   0.000001   0.000005
              13         14         15         16         17
     1  C   -0.011671   0.317234  -0.035884  -0.033306  -0.035417
     2  H   -0.002891  -0.036913  -0.005609  -0.004177   0.007430
     3  H   -0.001216  -0.036703   0.007377  -0.004568  -0.005553
     4  C    0.224505  -0.051339  -0.002782   0.007655  -0.003689
     5  H   -0.007546  -0.004139   0.002694  -0.000114  -0.000147
     6  H   -0.007726  -0.003358  -0.000081  -0.000081   0.002936
     7  C    0.004366  -0.000015  -0.000002  -0.000001   0.000000
     8  H    0.005090   0.000236   0.000074  -0.000016  -0.000005
     9  H   -0.001276   0.000010   0.000000  -0.000000   0.000000
    10  H    0.000873  -0.000011  -0.000004   0.000000   0.000000
    11  O   -0.032050  -0.000037  -0.000010   0.000001   0.000001
    12  O    0.196914   0.000355   0.000012   0.000006   0.000005
    13  H    0.421313   0.000723  -0.000060  -0.000074  -0.000141
    14  C    0.000723   4.883289   0.407631   0.407760   0.409138
    15  H   -0.000060   0.407631   0.595545  -0.030088  -0.033237
    16  H   -0.000074   0.407760  -0.030088   0.581609  -0.029459
    17  H   -0.000141   0.409138  -0.033237  -0.029459   0.591466
          Atomic-Atomic Spin Densities.
               1          2          3          4          5          6
     1  C   -0.028981   0.001092   0.001631  -0.029069  -0.000648  -0.000014
     2  H    0.001092   0.005609   0.001053  -0.002842   0.000710   0.000060
     3  H    0.001631   0.001053   0.006768  -0.003794   0.000020   0.000969
     4  C   -0.029069  -0.002842  -0.003794   0.699684   0.006336   0.004280
     5  H   -0.000648   0.000710   0.000020   0.006336  -0.028029   0.002412
     6  H   -0.000014   0.000060   0.000969   0.004280   0.002412  -0.023659
     7  C   -0.000203  -0.000112  -0.000010   0.001861  -0.000504  -0.000063
     8  H    0.001000   0.000852   0.000112  -0.006306   0.001303   0.000190
     9  H   -0.000012  -0.000009  -0.000000   0.000089  -0.000014  -0.000002
    10  H   -0.000226  -0.000154  -0.000034   0.001540  -0.000156  -0.000028
    11  O   -0.000532  -0.000150  -0.000047   0.012736  -0.001524  -0.000401
    12  O    0.004737   0.000791   0.000909  -0.089265   0.002659   0.002657
    13  H    0.000072  -0.000153  -0.000589   0.055873   0.003777   0.001389
    14  C    0.018258  -0.003140  -0.003069  -0.016342  -0.000588  -0.001353
    15  H   -0.000074   0.000164   0.000093   0.001104   0.000140   0.000138
    16  H   -0.003422   0.000803   0.000907   0.001842   0.000115   0.000163
    17  H    0.000334   0.000028   0.000063   0.000325   0.000027   0.000040
               7          8          9         10         11         12
     1  C   -0.000203   0.001000  -0.000012  -0.000226  -0.000532   0.004737
     2  H   -0.000112   0.000852  -0.000009  -0.000154  -0.000150   0.000791
     3  H   -0.000010   0.000112  -0.000000  -0.000034  -0.000047   0.000909
     4  C    0.001861  -0.006306   0.000089   0.001540   0.012736  -0.089265
     5  H   -0.000504   0.001303  -0.000014  -0.000156  -0.001524   0.002659
     6  H   -0.000063   0.000190  -0.000002  -0.000028  -0.000401   0.002657
     7  C   -0.006058   0.002557   0.000462  -0.002342   0.001460  -0.003249
     8  H    0.002557   0.005531  -0.000477  -0.002263  -0.001436   0.005136
     9  H    0.000462  -0.000477  -0.001869   0.000813   0.000061  -0.000198
    10  H   -0.002342  -0.002263   0.000813   0.005677  -0.001023  -0.000500
    11  O    0.001460  -0.001436   0.000061  -0.001023   0.061160  -0.046268
    12  O   -0.003249   0.005136  -0.000198  -0.000500  -0.046268   0.596571
    13  H    0.001410  -0.004054   0.000108   0.001573   0.010548  -0.049016
    14  C    0.000035  -0.000239  -0.000000   0.000016   0.000032  -0.000381
    15  H   -0.000003   0.000029  -0.000000  -0.000002  -0.000004   0.000021
    16  H   -0.000002   0.000027  -0.000000  -0.000002  -0.000001   0.000019
    17  H   -0.000001   0.000004  -0.000000  -0.000000  -0.000001   0.000009
              13         14         15         16         17
     1  C    0.000072   0.018258  -0.000074  -0.003422   0.000334
     2  H   -0.000153  -0.003140   0.000164   0.000803   0.000028
     3  H   -0.000589  -0.003069   0.000093   0.000907   0.000063
     4  C    0.055873  -0.016342   0.001104   0.001842   0.000325
     5  H    0.003777  -0.000588   0.000140   0.000115   0.000027
     6  H    0.001389  -0.001353   0.000138   0.000163   0.000040
     7  C    0.001410   0.000035  -0.000003  -0.000002  -0.000001
     8  H   -0.004054  -0.000239   0.000029   0.000027   0.000004
     9  H    0.000108  -0.000000  -0.000000  -0.000000  -0.000000
    10  H    0.001573   0.000016  -0.000002  -0.000002  -0.000000
    11  O    0.010548   0.000032  -0.000004  -0.000001  -0.000001
    12  O   -0.049016  -0.000381   0.000021   0.000019   0.000009
    13  H   -0.100106   0.000076  -0.000053  -0.000034   0.000001
    14  C    0.000076   0.039179  -0.001067  -0.003176  -0.000121
    15  H   -0.000053  -0.001067  -0.002209   0.000839   0.000476
    16  H   -0.000034  -0.003176   0.000839   0.011227   0.000391
    17  H    0.000001  -0.000121   0.000476   0.000391  -0.002471
 Mulliken charges and spin densities:
               1          2
     1  C   -0.155758  -0.036058
     2  H    0.100411   0.004601
     3  H    0.104852   0.004982
     4  C   -0.301092   0.638052
     5  H    0.120135  -0.013966
     6  H    0.122618  -0.013222
     7  C   -0.055566  -0.004761
     8  H    0.060394   0.001966
     9  H    0.098368  -0.001051
    10  H    0.083223   0.002887
    11  O   -0.177244   0.034609
    12  O   -0.213297   0.424632
    13  H    0.210867  -0.079180
    14  C   -0.293862   0.028118
    15  H    0.094423  -0.000410
    16  H    0.104854   0.009696
    17  H    0.096673  -0.000895
 Sum of Mulliken charges =  -0.00000   1.00000
 Mulliken charges and spin densities with hydrogens summed into heavy atoms:
               1          2
     1  C    0.049505  -0.026475
     4  C   -0.058339   0.610864
     7  C    0.186419  -0.000959
    11  O   -0.177244   0.034609
    12  O   -0.002430   0.345452
    14  C    0.002089   0.036509
 APT charges:
               1
     1  C   -0.031855
     2  H   -0.031457
     3  H   -0.025487
     4  C    0.454168
     5  H   -0.062959
     6  H   -0.051862
     7  C    0.428193
     8  H   -0.040984
     9  H   -0.006014
    10  H   -0.029209
    11  O   -0.479248
    12  O    0.263626
    13  H   -0.402223
    14  C    0.105444
    15  H   -0.018756
    16  H   -0.053366
    17  H   -0.018010
 Sum of APT charges =  -0.00000
 APT charges with hydrogens summed into heavy atoms:
               1
     1  C   -0.088799
     4  C    0.339346
     7  C    0.351986
    11  O   -0.479248
    12  O   -0.138596
    14  C    0.015312
 Electronic spatial extent (au):  <R**2>=           1060.1435
 Charge=             -0.0000 electrons
 Dipole moment (field-independent basis, Debye):
    X=              1.8048    Y=              1.9561    Z=             -0.3130  Tot=              2.6798
 Quadrupole moment (field-independent basis, Debye-Ang):
   XX=            -40.0105   YY=            -38.7849   ZZ=            -39.9082
   XY=             -5.6336   XZ=              0.2389   YZ=              0.2848
 Traceless Quadrupole moment (field-independent basis, Debye-Ang):
   XX=             -0.4426   YY=              0.7829   ZZ=             -0.3403
   XY=             -5.6336   XZ=              0.2389   YZ=              0.2848
 Octapole moment (field-independent basis, Debye-Ang**2):
  XXX=            -15.8075  YYY=             -3.0596  ZZZ=              0.7376  XYY=             -4.2522
  XXY=              9.4283  XXZ=              2.8189  XZZ=             -4.3597  YZZ=             -0.0110
  YYZ=             -0.9661  XYZ=              0.5233
 Hexadecapole moment (field-independent basis, Debye-Ang**3):
 XXXX=          -1111.0731 YYYY=           -182.0049 ZZZZ=           -105.1634 XXXY=            -24.7622
 XXXZ=              5.6459 YYYX=             -2.6789 YYYZ=              0.2293 ZZZX=              1.7282
 ZZZY=             -3.0402 XXYY=           -208.5773 XXZZ=           -200.4066 YYZZ=            -46.9085
 XXYZ=             -1.1238 YYXZ=              2.0018 ZZXY=             -0.3059
 N-N= 2.479233248923D+02 E-N=-1.218542401007D+03  KE= 3.075073413287D+02
  Exact polarizability: 107.631  -4.730  59.264  -4.583  -0.171  56.211
 Approx polarizability:  86.002  -1.887  66.130  -2.087  -2.543  65.713
                          Isotropic Fermi Contact Couplings
        Atom                 a.u.       MegaHertz       Gauss      10(-4) cm-1
     1  C(13)             -0.01240     -13.93652      -4.97290      -4.64872
     2  H(1)               0.00207       9.25869       3.30373       3.08837
     3  H(1)               0.00308      13.75068       4.90659       4.58673
     4  C(13)              0.09359     105.20939      37.54133      35.09408
     5  H(1)              -0.00407     -18.21216      -6.49855      -6.07492
     6  H(1)              -0.00397     -17.76577      -6.33927      -5.92602
     7  C(13)             -0.00424      -4.76602      -1.70064      -1.58977
     8  H(1)               0.00262      11.68981       4.17122       3.89930
     9  H(1)              -0.00017      -0.74628      -0.26629      -0.24893
    10  H(1)               0.00085       3.78257       1.34972       1.26173
    11  O(17)              0.01617      -9.80255      -3.49779      -3.26978
    12  O(17)              0.04399     -26.66790      -9.51577      -8.89545
    13  H(1)              -0.02402    -107.38070     -38.31610     -35.81834
    14  C(13)              0.03764      42.31674      15.09967      14.11535
    15  H(1)              -0.00047      -2.11542      -0.75483      -0.70563
    16  H(1)               0.00358      15.99688       5.70808       5.33598
    17  H(1)              -0.00041      -1.84719      -0.65912      -0.61616
 --------------------------------------------------------
       Center         ----  Spin Dipole Couplings  ----
                      3XX-RR        3YY-RR        3ZZ-RR
 --------------------------------------------------------
     1   Atom        0.017400     -0.007347     -0.010053
     2   Atom       -0.003257      0.005190     -0.001933
     3   Atom        0.001281     -0.007954      0.006673
     4   Atom        0.447687     -0.333316     -0.114371
     5   Atom        0.002568     -0.020479      0.017911
     6   Atom       -0.006468      0.038288     -0.031820
     7   Atom       -0.000752      0.007937     -0.007185
     8   Atom       -0.002403      0.008537     -0.006134
     9   Atom       -0.000002      0.003076     -0.003074
    10   Atom       -0.001021      0.004751     -0.003730
    11   Atom        0.315986     -0.184651     -0.131335
    12   Atom        0.911439     -0.834157     -0.077282
    13   Atom        0.181793     -0.119015     -0.062778
    14   Atom        0.043746     -0.018271     -0.025475
    15   Atom        0.001730     -0.000525     -0.001205
    16   Atom        0.002025     -0.001952     -0.000073
    17   Atom        0.008683     -0.003313     -0.005370
 --------------------------------------------------------
                        XY            XZ            YZ
 --------------------------------------------------------
     1   Atom        0.018184      0.005445      0.005177
     2   Atom        0.005550      0.001984      0.008133
     3   Atom        0.000965      0.008660      0.001232
     4   Atom        0.138701     -0.442724     -0.077600
     5   Atom       -0.011348      0.005810     -0.038535
     6   Atom       -0.013619     -0.022114      0.010869
     7   Atom       -0.004878      0.001472     -0.000477
     8   Atom       -0.002635     -0.000798     -0.001230
     9   Atom       -0.004338      0.000915     -0.002014
    10   Atom       -0.005518     -0.001873      0.003333
    11   Atom        0.072265     -0.263046     -0.016447
    12   Atom        0.427016     -1.248727     -0.287030
    13   Atom        0.032767     -0.133521     -0.016886
    14   Atom        0.022260     -0.008787     -0.003292
    15   Atom        0.006415     -0.002727     -0.003876
    16   Atom        0.003369      0.002413      0.002663
    17   Atom       -0.002493     -0.000696      0.001678
 --------------------------------------------------------


 ---------------------------------------------------------------------------------
              Anisotropic Spin Dipole Couplings in Principal Axis System
 ---------------------------------------------------------------------------------

       Atom             a.u.   MegaHertz   Gauss  10(-4) cm-1        Axes

              Baa    -0.0176    -2.363    -0.843    -0.788 -0.4018  0.8643 -0.3025
     1 C(13)  Bbb    -0.0108    -1.446    -0.516    -0.482 -0.3014  0.1871  0.9349
              Bcc     0.0284     3.809     1.359     1.271  0.8647  0.4669  0.1854
 
              Baa    -0.0079    -4.220    -1.506    -1.408  0.4285 -0.6006  0.6750
     2 H(1)   Bbb    -0.0047    -2.498    -0.891    -0.833  0.8364 -0.0189 -0.5478
              Bcc     0.0126     6.718     2.397     2.241  0.3418  0.7993  0.4942
 
              Baa    -0.0081    -4.306    -1.536    -1.436 -0.0565  0.9971 -0.0501
     3 H(1)   Bbb    -0.0051    -2.717    -0.970    -0.906  0.8045  0.0157 -0.5938
              Bcc     0.0132     7.023     2.506     2.343  0.5913  0.0739  0.8031
 
              Baa    -0.3588   -48.142   -17.178   -16.058  0.2767  0.6500  0.7077
     4 C(13)  Bbb    -0.3564   -47.823   -17.064   -15.952 -0.4157  0.7450 -0.5217
              Bcc     0.7151    95.964    34.242    32.010  0.8664  0.1499 -0.4764
 
              Baa    -0.0453   -24.154    -8.619    -8.057  0.1404  0.8510  0.5061
     5 H(1)   Bbb     0.0006     0.341     0.122     0.114  0.9570  0.0144 -0.2897
              Bcc     0.0446    23.813     8.497     7.943  0.2538 -0.5250  0.8124
 
              Baa    -0.0447   -23.860    -8.514    -7.959  0.4913 -0.0334  0.8704
     6 H(1)   Bbb    -0.0012    -0.616    -0.220    -0.206  0.8050  0.3990 -0.4391
              Bcc     0.0459    24.477     8.734     8.164 -0.3326  0.9164  0.2229
 
              Baa    -0.0075    -1.011    -0.361    -0.337 -0.2441 -0.0471  0.9686
     7 C(13)  Bbb    -0.0027    -0.356    -0.127    -0.119  0.8773  0.4149  0.2413
              Bcc     0.0102     1.367     0.488     0.456 -0.4132  0.9086 -0.0600
 
              Baa    -0.0065    -3.477    -1.241    -1.160  0.2654  0.1246  0.9561
     8 H(1)   Bbb    -0.0027    -1.436    -0.512    -0.479  0.9395  0.1892 -0.2854
              Bcc     0.0092     4.912     1.753     1.639 -0.2164  0.9740 -0.0669
 
              Baa    -0.0038    -2.021    -0.721    -0.674  0.2923  0.4347  0.8518
     9 H(1)   Bbb    -0.0028    -1.515    -0.541    -0.505  0.7786  0.4089 -0.4759
              Bcc     0.0066     3.536     1.262     1.180 -0.5552  0.8024 -0.2190
 
              Baa    -0.0049    -2.606    -0.930    -0.869 -0.0474 -0.3507  0.9353
    10 H(1)   Bbb    -0.0043    -2.313    -0.825    -0.772  0.8679  0.4491  0.2124
              Bcc     0.0092     4.919     1.755     1.641 -0.4946  0.8218  0.2830
 
              Baa    -0.2566    18.570     6.626     6.194  0.4301 -0.2324  0.8724
    11 O(17)  Bbb    -0.1893    13.698     4.888     4.569 -0.0033  0.9659  0.2590
              Bcc     0.4459   -32.268   -11.514   -10.763  0.9028  0.1143 -0.4146
 
              Baa    -0.9334    67.538    24.099    22.528 -0.3313  0.9277 -0.1722
    12 O(17)  Bbb    -0.9250    66.936    23.884    22.327  0.4797  0.3227  0.8159
              Bcc     1.8584  -134.474   -47.984   -44.856  0.8125  0.1877 -0.5520
 
              Baa    -0.1245   -66.409   -23.696   -22.152  0.1728  0.7887  0.5900
    13 H(1)   Bbb    -0.1198   -63.933   -22.813   -21.326  0.3760 -0.6064  0.7006
              Bcc     0.2443   130.342    46.509    43.477  0.9104  0.1008 -0.4014
 
              Baa    -0.0268    -3.590    -1.281    -1.198  0.0116  0.3351  0.9421
    14 C(13)  Bbb    -0.0253    -3.393    -1.211    -1.132 -0.3273  0.8915 -0.3131
              Bcc     0.0520     6.984     2.492     2.329  0.9448  0.3047 -0.1200
 
              Baa    -0.0063    -3.375    -1.204    -1.126 -0.5211  0.7908  0.3211
    15 H(1)   Bbb    -0.0028    -1.512    -0.540    -0.504  0.5186 -0.0055  0.8550
              Bcc     0.0092     4.887     1.744     1.630  0.6779  0.6120 -0.4072
 
              Baa    -0.0043    -2.302    -0.822    -0.768 -0.3259  0.8731 -0.3626
    16 H(1)   Bbb    -0.0016    -0.863    -0.308    -0.288 -0.6110  0.0981  0.7855
              Bcc     0.0059     3.166     1.130     1.056  0.7214  0.4776  0.5015
 
              Baa    -0.0063    -3.381    -1.207    -1.128 -0.0454 -0.5129  0.8573
    17 H(1)   Bbb    -0.0029    -1.555    -0.555    -0.519  0.2099  0.8341  0.5101
              Bcc     0.0093     4.936     1.761     1.646  0.9767 -0.2031 -0.0698
 

 ---------------------------------------------------------------------------------

 Calling FoFJK, ICntrl=  10100127 FMM=F ISym2X=0 I1Cent= 0 IOpClX= 1 NMat=1 NMatS=1 NMatT=0.
 ***** Axes restored to original set *****
 -------------------------------------------------------------------
 Center     Atomic                   Forces (Hartrees/Bohr)
 Number     Number              X              Y              Z
 -------------------------------------------------------------------
      1        6          -0.000301375   -0.000036080   -0.000133557
      2        1           0.000337422   -0.000368619   -0.000015678
      3        1           0.000010699    0.000220371   -0.000162847
      4        6          -0.002151958   -0.001202376    0.000808006
      5        1           0.000447538   -0.000630015    0.000579394
      6        1           0.000113041    0.000727891   -0.000112689
      7        6           0.000425265    0.004989560    0.001781812
      8        1          -0.001175026    0.000365909    0.000249909
      9        1           0.000227948   -0.000402853    0.000188131
     10        1           0.000182430    0.000501819   -0.000543764
     11        8          -0.009642206    0.001523891   -0.010045539
     12        8           0.004862124   -0.006722917    0.009548404
     13        1           0.005304356    0.000522241   -0.002182195
     14        6           0.000880976    0.000162730   -0.000232372
     15        1           0.000334289   -0.000144861    0.000388875
     16        1           0.000050563   -0.000055597   -0.000218753
     17        1           0.000093914    0.000548908    0.000102864
 -------------------------------------------------------------------
 Cartesian Forces:  Max     0.010045539 RMS     0.002904407
 FormGI is forming the generalized inverse of G from B-inverse, IUseBI=4.

 GradGradGradGradGradGradGradGradGradGradGradGradGradGradGradGradGradGrad
 Berny optimization.
 Internal  Forces:  Max     0.014683795 RMS     0.002155534
 Search for a saddle point.
 Step number   1 out of a maximum of  102
 All quantities printed in internal units (Hartrees-Bohrs-Radians)
 Swapping is turned off.
 Second derivative matrix not updated -- analytic derivatives used.
 ITU=  0
     Eigenvalues ---   -0.07750   0.00113   0.00163   0.00255   0.00659
     Eigenvalues ---    0.01669   0.02123   0.02973   0.03203   0.03526
     Eigenvalues ---    0.03886   0.04158   0.04599   0.04611   0.06518
     Eigenvalues ---    0.06857   0.08488   0.08552   0.08820   0.09343
     Eigenvalues ---    0.11896   0.12157   0.13259   0.13552   0.16027
     Eigenvalues ---    0.16452   0.17354   0.18081   0.18748   0.19329
     Eigenvalues ---    0.27961   0.28455   0.30862   0.32578   0.33070
     Eigenvalues ---    0.33421   0.33699   0.33779   0.34148   0.34353
     Eigenvalues ---    0.34544   0.34618   0.34797   0.36289   0.43947
 Eigenvectors required to have negative eigenvalues:
                          R13       R7        R12       D1        D5
   1                    0.67954  -0.67331  -0.15361   0.08244  -0.07767
                          A20       D7        D8        D4        A11
   1                    0.07705   0.07595  -0.07053   0.06881   0.06623
 RFO step:  Lambda0=7.060157728D-05 Lambda=-1.02191236D-03.
 Linear search not attempted -- option 19 set.
 Iteration  1 RMS(Cart)=  0.06078979 RMS(Int)=  0.00070436
 Iteration  2 RMS(Cart)=  0.00120961 RMS(Int)=  0.00002878
 Iteration  3 RMS(Cart)=  0.00000100 RMS(Int)=  0.00002877
 Iteration  4 RMS(Cart)=  0.00000000 RMS(Int)=  0.00002877
 Variable       Old X    -DE/DX   Delta X   Delta X   Delta X     New X
                                 (Linear)    (Quad)   (Total)
    R1        2.06248  -0.00047   0.00000  -0.00146  -0.00146   2.06102
    R2        2.06191  -0.00025   0.00000  -0.00078  -0.00078   2.06113
    R3        2.83848   0.00078   0.00000  -0.00062  -0.00062   2.83786
    R4        2.89564   0.00132   0.00000   0.00471   0.00471   2.90035
    R5        2.05735  -0.00092   0.00000  -0.00292  -0.00292   2.05443
    R6        2.05515  -0.00062   0.00000  -0.00218  -0.00218   2.05297
    R7        2.55481  -0.00072   0.00000   0.01921   0.01921   2.57402
    R8        2.06611  -0.00093   0.00000  -0.00312  -0.00312   2.06299
    R9        2.05674  -0.00044   0.00000  -0.00056  -0.00056   2.05618
   R10        2.05959  -0.00052   0.00000  -0.00216  -0.00216   2.05743
   R11        2.66828   0.00571   0.00000   0.01357   0.01357   2.68185
   R12        2.61121   0.01468   0.00000   0.04770   0.04770   2.65891
   R13        2.20327   0.00511   0.00000  -0.00785  -0.00785   2.19542
   R14        2.06003  -0.00042   0.00000  -0.00135  -0.00135   2.05868
   R15        2.05927  -0.00015   0.00000  -0.00050  -0.00050   2.05878
   R16        2.05988  -0.00045   0.00000  -0.00139  -0.00139   2.05849
    A1        1.86258   0.00017   0.00000  -0.00042  -0.00043   1.86216
    A2        1.91744  -0.00031   0.00000   0.00011   0.00012   1.91756
    A3        1.91075  -0.00050   0.00000  -0.00320  -0.00321   1.90754
    A4        1.91550  -0.00037   0.00000  -0.00012  -0.00011   1.91538
    A5        1.90902  -0.00045   0.00000  -0.00299  -0.00300   1.90602
    A6        1.94662   0.00139   0.00000   0.00628   0.00628   1.95291
    A7        2.02637  -0.00012   0.00000   0.00302   0.00298   2.02935
    A8        2.02156  -0.00023   0.00000   0.00237   0.00228   2.02385
    A9        1.87481   0.00084   0.00000   0.00287   0.00285   1.87766
   A10        1.96529  -0.00004   0.00000   0.00128   0.00134   1.96663
   A11        1.75536  -0.00025   0.00000  -0.00665  -0.00663   1.74874
   A12        1.77693  -0.00010   0.00000  -0.00561  -0.00558   1.77136
   A13        1.91727  -0.00036   0.00000  -0.00119  -0.00118   1.91609
   A14        1.91522  -0.00056   0.00000   0.00066   0.00063   1.91585
   A15        1.92807   0.00126   0.00000   0.00762   0.00761   1.93567
   A16        1.92646  -0.00027   0.00000  -0.00189  -0.00189   1.92457
   A17        1.84719  -0.00080   0.00000  -0.00919  -0.00919   1.83800
   A18        1.92878   0.00074   0.00000   0.00372   0.00371   1.93249
   A19        1.88763   0.00164   0.00000  -0.00701  -0.00701   1.88062
   A20        1.81555   0.00473   0.00000   0.00581   0.00581   1.82136
   A21        1.93388   0.00034   0.00000   0.00300   0.00300   1.93688
   A22        1.93611   0.00007   0.00000  -0.00319  -0.00319   1.93292
   A23        1.93295   0.00039   0.00000   0.00345   0.00344   1.93639
   A24        1.88859  -0.00028   0.00000  -0.00186  -0.00185   1.88673
   A25        1.88248  -0.00027   0.00000   0.00016   0.00015   1.88262
   A26        1.88803  -0.00029   0.00000  -0.00169  -0.00169   1.88634
   A27        3.05559   0.00222   0.00000   0.04236   0.04236   3.09796
   A28        3.14057   0.00060   0.00000   0.01926   0.01928   3.15985
    D1        0.92272   0.00030   0.00000  -0.00793  -0.00793   0.91478
    D2       -2.99645  -0.00018   0.00000   0.00057   0.00058  -2.99586
    D3       -1.02483   0.00013   0.00000  -0.00319  -0.00320  -1.02803
    D4        2.96552   0.00012   0.00000  -0.00844  -0.00845   2.95707
    D5       -0.95365  -0.00037   0.00000   0.00005   0.00007  -0.95358
    D6        1.01797  -0.00006   0.00000  -0.00370  -0.00372   1.01425
    D7       -1.19924   0.00022   0.00000  -0.00814  -0.00815  -1.20739
    D8        1.16479  -0.00026   0.00000   0.00035   0.00037   1.16515
    D9        3.13640   0.00004   0.00000  -0.00341  -0.00341   3.13299
   D10       -1.08161  -0.00010   0.00000  -0.00008  -0.00007  -1.08168
   D11        1.01648  -0.00018   0.00000  -0.00254  -0.00253   1.01395
   D12        3.11324  -0.00024   0.00000  -0.00449  -0.00449   3.10876
   D13       -3.11677   0.00023   0.00000   0.00397   0.00397  -3.11281
   D14       -1.01869   0.00015   0.00000   0.00151   0.00150  -1.01718
   D15        1.07808   0.00009   0.00000  -0.00044  -0.00045   1.07763
   D16        1.04422   0.00009   0.00000   0.00203   0.00203   1.04625
   D17       -3.14088   0.00000   0.00000  -0.00043  -0.00043  -3.14131
   D18       -1.04411  -0.00005   0.00000  -0.00238  -0.00238  -1.04650
   D19        2.10493   0.00028   0.00000   0.00236   0.00230   2.10723
   D20       -0.00490  -0.00017   0.00000  -0.00687  -0.00697  -0.01187
   D21       -2.03170  -0.00003   0.00000  -0.00669  -0.00653  -2.03823
   D22        1.13774   0.00038   0.00000   0.01132   0.01135   1.14910
   D23       -3.07096   0.00014   0.00000   0.00859   0.00858  -3.06238
   D24       -0.98513  -0.00025   0.00000   0.00290   0.00288  -0.98224
   D25       -1.54911  -0.00126   0.00000  -0.03726  -0.03726  -1.58637
         Item               Value     Threshold  Converged?
 Maximum Force            0.014684     0.000450     NO 
 RMS     Force            0.002156     0.000300     NO 
 Maximum Displacement     0.195150     0.001800     NO 
 RMS     Displacement     0.061324     0.001200     NO 
 Predicted change in Energy=-4.790108D-04
 GradGradGradGradGradGradGradGradGradGradGradGradGradGradGradGradGradGrad

                          Input orientation:                          
 ---------------------------------------------------------------------
 Center     Atomic      Atomic             Coordinates (Angstroms)
 Number     Number       Type             X           Y           Z
 ---------------------------------------------------------------------
      1          6           0        1.752213    0.126559    0.449394
      2          1           0        1.283374    1.079957    0.695819
      3          1           0        1.818183   -0.439745    1.379223
      4          6           0        0.903155   -0.619186   -0.539623
      5          1           0        0.618513   -0.074708   -1.436524
      6          1           0        1.203584   -1.642150   -0.748234
      7          6           0       -2.337971    1.091223    0.016078
      8          1           0       -1.381905    1.601771   -0.114534
      9          1           0       -3.082308    1.528071   -0.646533
     10          1           0       -2.660897    1.173657    1.052557
     11          8           0       -2.242462   -0.270113   -0.373398
     12          8           0       -1.367094   -0.912035    0.521818
     13          1           0       -0.321032   -0.806205    0.027594
     14          6           0        3.167054    0.381141   -0.088213
     15          1           0        3.136132    0.971141   -1.003503
     16          1           0        3.766302    0.922250    0.643239
     17          1           0        3.673169   -0.557056   -0.312307
 ---------------------------------------------------------------------
                    Distance matrix (angstroms):
                    1          2          3          4          5
     1  C    0.000000
     2  H    1.090643   0.000000
     3  H    1.090704   1.750016   0.000000
     4  C    1.501729   2.134940   2.133412   0.000000
     5  H    2.209632   2.514395   3.082352   1.087157   0.000000
     6  H    2.205366   3.082454   2.519839   1.086385   1.809123
     7  C    4.224683   3.684606   4.634183   3.706643   3.494317
     8  H    3.509553   2.834198   4.079175   3.214786   2.925733
     9  H    5.151494   4.589325   5.656042   4.528362   4.109631
    10  H    4.575561   3.961479   4.771995   4.295555   4.302147
    11  O    4.097775   3.923956   4.425980   3.169288   3.058365
    12  O    3.288464   3.320134   3.332295   2.523182   2.911847
    13  H    2.312209   2.564810   2.556841   1.362110   1.887187
    14  C    1.534799   2.156687   2.155615   2.515882   2.919042
    15  H    2.177030   2.516396   3.066753   2.780380   2.760383
    16  H    2.174225   2.488487   2.488347   3.460173   3.902296
    17  H    2.176601   3.067124   2.513167   2.780020   3.290509
                    6          7          8          9         10
     6  H    0.000000
     7  C    4.538516   0.000000
     8  H    4.196351   1.091687   0.000000
     9  H    5.331935   1.088084   1.783207   0.000000
    10  H    5.109387   1.088744   1.783593   1.786086   0.000000
    11  O    3.728032   1.419172   2.076419   2.003350   2.071934
    12  O    2.958798   2.282853   2.593142   3.203299   2.511120
    13  H    1.903988   2.769189   2.635147   3.678035   3.231930
    14  C    2.895609   5.551612   4.709953   6.378221   5.991198
    15  H    3.260245   5.569540   4.647646   6.253527   6.154181
    16  H    3.883280   6.138732   5.247857   6.995283   6.445125
    17  H    2.732455   6.241672   5.500311   7.077849   6.706610
                   11         12         13         14         15
    11  O    0.000000
    12  O    1.407034   0.000000
    13  H    2.034719   1.161767   0.000000
    14  C    5.456035   4.754254   3.686454   0.000000
    15  H    5.555809   5.113902   4.021704   1.089409   0.000000
    16  H    6.209712   5.452622   4.480276   1.089458   1.763877
    17  H    5.922901   5.121135   4.016373   1.089305   1.761121
                   16         17
    16  H    0.000000
    17  H    1.763544   0.000000
 Stoichiometry    C4H11O2(2)
 Framework group  C1[X(C4H11O2)]
 Deg. of freedom    45
 Full point group                 C1      NOp   1
 Largest Abelian subgroup         C1      NOp   1
 Largest concise Abelian subgroup C1      NOp   1
                         Standard orientation:                         
 ---------------------------------------------------------------------
 Center     Atomic      Atomic             Coordinates (Angstroms)
 Number     Number       Type             X           Y           Z
 ---------------------------------------------------------------------
      1          6           0        1.749202    0.156017    0.449450
      2          1           0        1.270889    1.112647    0.662944
      3          1           0        1.820646   -0.377206    1.398241
      4          6           0        0.907735   -0.631773   -0.513103
      5          1           0        0.617841   -0.121396   -1.428191
      6          1           0        1.218331   -1.658291   -0.686375
      7          6           0       -2.350286    1.064540   -0.016092
      8          1           0       -1.399313    1.579741   -0.164413
      9          1           0       -3.098820    1.470875   -0.693231
     10          1           0       -2.674172    1.179456    1.016989
     11          8           0       -2.241215   -0.308401   -0.358416
     12          8           0       -1.359658   -0.910357    0.558236
     13          1           0       -0.314622   -0.811259    0.060458
     14          6           0        3.161529    0.405935   -0.096884
     15          1           0        3.124894    0.963689   -1.031968
     16          1           0        3.755267    0.977862    0.615361
     17          1           0        3.676962   -0.534364   -0.288592
 ---------------------------------------------------------------------
 Rotational constants (GHZ):           7.3155918           1.1853001           1.1131714
 Standard basis: CC-pVTZ (5D, 7F)
 There are   375 symmetry adapted cartesian basis functions of A   symmetry.
 There are   334 symmetry adapted basis functions of A   symmetry.
   334 basis functions,   499 primitive gaussians,   375 cartesian basis functions
    26 alpha electrons       25 beta electrons
       nuclear repulsion energy       246.0081420102 Hartrees.
 NAtoms=   17 NActive=   17 NUniq=   17 SFac= 1.00D+00 NAtFMM=   60 NAOKFM=F Big=F
 Integral buffers will be    131072 words long.
 Raffenetti 2 integral format.
 Two-electron integral symmetry is turned on.
 Nuclear repulsion after empirical dispersion term =      246.0004645925 Hartrees.
 One-electron integrals computed using PRISM.
 NBasis=   334 RedAO= T EigKep=  7.86D-04  NBF=   334
 NBsUse=   334 1.00D-06 EigRej= -1.00D+00 NBFU=   334
 Initial guess from the checkpoint file:  "/localscratch/341085/Gau-96585.chk"
 B after Tr=     0.000000   -0.000000   -0.000000
         Rot=    0.999882    0.014695   -0.000023   -0.004375 Ang=   1.76 deg.
 Initial guess <Sx>= 0.0000 <Sy>= 0.0000 <Sz>= 0.5000 <S**2>= 0.7684 S= 0.5092
 ExpMin= 1.03D-01 ExpMax= 1.53D+04 ExpMxC= 5.22D+02 IAcc=3 IRadAn=         5 AccDes= 0.00D+00
 Harris functional with IExCor=  419 and IRadAn=       5 diagonalized for initial guess.
 HarFok:  IExCor=  419 AccDes= 0.00D+00 IRadAn=         5 IDoV= 1 UseB2=F ITyADJ=14
 ICtDFT=  3500011 ScaDFX=  1.000000  1.000000  1.000000  1.000000
 FoFCou: FMM=F IPFlag=           0 FMFlag=      100000 FMFlg1=           0
         NFxFlg=           0 DoJE=T BraDBF=F KetDBF=T FulRan=T
         wScrn=  0.000000 ICntrl=       500 IOpCl=  0 I1Cent=   200000004 NGrid=           0
         NMat0=    1 NMatS0=      1 NMatT0=    0 NMatD0=    1 NMtDS0=    0 NMtDT0=    0
 Petite list used in FoFCou.
[...]
   zx         0.173401D+02      0.256954D+01      0.285900D+01
   zy         0.154515D+02      0.228967D+01      0.254760D+01
   zz         0.744990D+02      0.110396D+02      0.122832D+02

 ----------------------------------------------------------------------
 1\1\GINC-N58\Freq\UB2PLYPD3-FC\CC-pVTZ\C4H11O2(2)\ROOT\07-Jun-2019\0\\
 #N Geom=AllCheck Guess=TCheck SCRF=Check GenChk UB2PLYPD3(FC)/CC-pVTZ 
 Freq\\Title Card Required\\0,2\C,1.7579077137,0.1305056473,0.445595173
 1\H,1.2935220836,1.0881196205,0.6839286461\H,1.8161804164,-0.430397286
 8,1.3792143437\C,0.9091266894,-0.6164932629,-0.5427175208\H,0.62988837
 32,-0.0753724071,-1.443322229\H,1.2061886788,-1.6416695302,-0.74522820
 67\C,-2.3553423566,1.0910535429,0.021198806\H,-1.4051619542,1.61353897
 06,-0.1042867222\H,-3.1036702204,1.5234106433,-0.6399105166\H,-2.68126
 01431,1.1628546303,1.0575168001\O,-2.2438031482,-0.2666429981,-0.37732
 49695\O,-1.3627791151,-0.9054974221,0.5178063141\H,-0.3175351495,-0.79
 7117083,0.021152088\C,3.1768010486,0.3735222635,-0.0867436211\H,3.1537
 710599,0.9579079,-1.0058572901\H,3.7755801418,0.9158146502,0.644216208
 2\H,3.6785958818,-0.5689648784,-0.3023853032\\Version=ES64L-G16RevB.01
 \State=2-A\HF=-308.790359\MP2=-309.1821379\PUHF=-308.796524\PMP2-0=-30
 9.1826468\S2=0.768325\S2-1=0.742755\S2A=0.750149\RMSD=6.874e-10\RMSF=2
 .873e-06\ZeroPoint=0.1420103\Thermal=0.1511476\Dipole=0.6274878,0.7650
 944,-0.102642\DipoleDeriv=-0.2590128,-0.0292358,0.0082838,-0.0128383,0
 .0851571,-0.0167065,0.2617231,-0.0146025,0.069963,-0.0194391,0.067218,
 0.0274769,0.0516725,-0.101291,-0.0555787,-0.0091123,-0.0382181,0.03061
 68,0.0234916,-0.0140776,-0.0049175,-0.0201647,0.0037691,0.086811,-0.03
 22363,0.0649627,-0.0988534,1.1219981,-0.1092126,-0.1498897,0.1891268,0
 .1035737,-0.0422058,-0.3495906,0.047366,0.1391442,-0.1039295,0.0153504
 ,-0.0035993,0.0009322,-0.0038583,0.066547,-0.0041894,0.0224368,-0.0715
 266,-0.0986131,0.086966,0.0293223,-0.0240522,-0.0685423,-0.0378766,0.0
 441109,-0.0490325,0.0200053,0.4024167,-0.005944,-0.0268051,-0.3661555,
 0.5546889,0.095387,-0.1573384,0.0923132,0.3244643,-0.1044676,-0.124063
 4,0.0243876,0.0464281,-0.0510313,-0.006951,0.0812518,-0.0145626,0.0292
 632,-0.0282289,0.0656529,-0.0707311,0.0891499,-0.0025941,0.0118772,-0.
 0823877,0.0350086,0.0083284,0.0284052,0.0055975,0.0437909,0.0388773,-0
 .001773,0.0249234,0.1315596,-0.0755374,-0.1124894,-0.8022711,-0.000298
 1,0.1278524,0.5887101,-0.4290279,-0.1439159,-0.6570271,0.0095962,-0.16
 68262,1.0975164,-0.0520092,-0.2188938,-0.3708255,-0.2553931,-0.0125827
 ,0.4095973,-0.0482262,-0.1986831,-1.2512626,0.1062841,0.2367814,-0.101
 0755,0.138614,0.0392876,0.568105,-0.0121169,-0.0097764,0.105466,-0.003
 7419,0.0251864,-0.1083221,0.111087,0.0038942,-0.2297942,-0.0207742,0.1
 108593,0.0329176,0.016942,-0.0252888,-0.0105298,0.001309,0.0892412,0.0
 419585,0.0964051,-0.0913003,-0.1410315,-0.0648173,-0.0466533,-0.100873
 1,0.0142524,-0.0624733,-0.0613048,-0.0700982,-0.0305935,-0.0039554,0.0
 39389,0.0236966,0.1099396,-0.0989402,-0.0396782,0.0446744,-0.0249198,0
 .0474044\Polar=108.0154268,-4.832184,59.2228921,-4.4241072,-0.045021,5
 6.286283\PG=C01 [X(C4H11O2)]\NImag=1\\0.43712622,-0.05129370,0.5737955
 2,0.01199636,-0.02202103,0.54082940,-0.09146947,0.09874910,0.02173805,
 0.10621559,0.09826928,-0.24969886,-0.04542246,-0.10409420,0.27215222,0
 .02079603,-0.04516252,-0.06241737,-0.02369090,0.05345147,0.06411217,-0
 .04510032,0.01042567,-0.01301640,-0.00146568,0.00694067,-0.01205229,0.
 05601283,0.00986486,-0.12304559,0.11430345,0.00151130,-0.01519218,0.02
 465692,-0.00654728,0.12876264,-0.01317284,0.11386451,-0.23539869,0.000
 12215,-0.00333585,0.00651990,0.01570013,-0.12496817,0.25785214,-0.0950
 2576,-0.03030015,-0.05995109,0.00706606,0.00545605,0.00945104,-0.00471
 698,-0.00176659,-0.00352334,0.23522666,-0.03305496,-0.11906541,-0.0431
 2278,-0.02051072,-0.01664213,-0.02139998,0.01023122,0.01030552,0.01161
 371,-0.07032510,0.56433095,-0.06726380,-0.04613129,-0.13538272,-0.0044
 0931,-0.00405840,-0.00461146,-0.01867978,-0.01553574,-0.01968687,0.140
 47954,-0.00628348,0.46217277,-0.00260432,0.01060562,-0.01711487,0.0003
 1719,-0.00054157,0.00070115,-0.00136752,-0.00274167,-0.00198275,-0.042
 57952,0.03215100,-0.05855702,0.04836591,-0.00451882,0.01073908,-0.0143
 1963,0.00084122,0.00105823,0.00060579,-0.00270990,-0.00075728,-0.00289
 865,0.03883405,-0.12492571,0.11301983,-0.03857621,0.12605074,-0.001644
 37,0.01141887,-0.01396544,0.00071857,0.00004538,0.00064134,-0.00280456
 ,-0.00260137,-0.00172007,-0.07204561,0.11486679,-0.23337936,0.07176612
 ,-0.12267551,0.24829735,0.00731454,-0.02000946,-0.00380303,-0.00178846
 ,-0.00199793,-0.00293379,0.00038440,0.00074741,0.00036978,-0.05425051,
 0.08747726,0.00291036,0.00070395,0.00518627,0.00232567,0.05604208,0.00
 677307,-0.01211400,-0.00247622,-0.00227501,0.00021895,-0.00225646,-0.0
 0030605,0.00081050,-0.00028448,0.07485373,-0.29386036,-0.04535240,0.00
 493883,-0.01089700,-0.00487438,-0.08215310,0.31485533,0.00772672,-0.01
 898381,-0.00128190,-0.00310763,-0.00276423,-0.00213745,0.00106805,0.00
 055056,0.00080631,0.00145740,-0.05231292,-0.05611987,-0.00838389,0.024
 12577,0.00696875,-0.00398481,0.05375952,0.05431136,0.00074229,0.000555
 77,-0.00037392,-0.00018229,-0.00038268,-0.00030063,0.00012683,-0.00008
 693,0.00007384,-0.00107228,0.00101806,0.00105079,0.00002075,0.00012819
 ,0.00033866,0.00006693,-0.00039362,0.00009241,0.59401745,-0.00252196,0
 .00135249,0.00249429,-0.00016404,-0.00085960,-0.00057051,0.00016397,-0
 .00017515,-0.00013242,0.01081687,0.00312939,-0.00516898,-0.00073812,0.
 00006734,0.00075028,-0.00170783,-0.00076699,0.00077540,0.00998044,0.44
 904022,-0.00082206,-0.00000611,0.00060696,-0.00000316,0.00000049,0.000
 01732,0.00000048,0.00004696,-0.00005756,0.00224143,0.00003395,-0.00097
 178,-0.00018530,-0.00008252,0.00006984,-0.00030596,-0.00011450,0.00010
 185,0.02465657,-0.03468539,0.60287830,-0.00013173,-0.00024308,-0.00009
 484,-0.00008333,0.00020050,-0.00000961,0.00001533,-0.00003054,-0.00005
 465,-0.00085355,-0.00050097,0.00067512,-0.00015880,0.00004544,-0.00001
 037,0.00017844,0.00012010,-0.00005415,-0.25501406,-0.10009260,0.030464
 21,0.26881581,0.00081206,-0.00020916,-0.00061380,0.00014844,0.00025868
 ,0.00019081,-0.00008242,0.00004789,0.00000621,-0.00248076,-0.00030249,
 0.00129911,0.00052275,-0.00002768,-0.00047309,0.00016138,0.00018104,-0
 .00020638,-0.09468023,-0.09382827,0.01765768,0.11332550,0.11695368,0.0
 0015182,0.00032993,-0.00015280,-0.00012155,-0.00017120,0.00004105,-0.0
 0002658,-0.00002058,-0.00003309,-0.00071117,-0.00002106,0.00053386,0.0
 0035098,-0.00005048,-0.00024628,-0.00000322,0.00002036,-0.00017177,0.0
 3210613,0.01552420,-0.05815385,-0.03199308,-0.01150400,0.05409515,-0.0
 0002665,-0.00015079,0.00006801,0.00007975,0.00011408,0.00004844,-0.000
 01299,0.00003551,0.00000373,0.00023001,0.00009911,-0.00019265,-0.00002
 502,-0.00003412,-0.00003670,-0.00006959,0.00001733,0.00004153,-0.17852
 822,0.07098344,-0.11368241,-0.01694977,0.01079800,-0.01735037,0.188258
 98,0.00029454,-0.00017503,-0.00029943,0.00004219,0.00013207,0.00007271
 ,-0.00004302,0.00001955,0.00001598,-0.00090847,-0.00020795,0.00015167,
 0.00024098,0.00001249,-0.00011770,0.00012025,0.00012296,-0.00005938,0.
 06310962,-0.08571237,0.05569665,-0.00933917,0.00784172,-0.00935208,-0.
 08067697,0.10226528,0.00001347,-0.00000498,-0.00001574,0.00000198,0.00
 001668,-0.00002215,0.00000340,-0.00001699,0.00000097,0.00003115,0.0000
 0274,-0.00002066,0.00001075,0.00001910,-0.00000037,-0.00000595,-0.0000
 0196,0.00000595,-0.11649579,0.06448854,-0.15513769,0.00439284,-0.00228
 751,0.00338784,0.12548740,-0.06812171,0.15881801,-0.00006137,-0.000002
 12,0.00003584,0.00001525,-0.00001229,0.00011957,-0.00006450,0.00005067
 ,-0.00003571,0.00009779,-0.00014835,0.00006339,-0.00000198,-0.00003404
 ,-0.00012417,-0.00001635,0.00005135,-0.00006737,-0.07730537,-0.0000957
 7,0.07529526,-0.00813248,-0.00026360,0.02813198,0.00833011,-0.00186891
 ,-0.02156570,0.07428010,0.00022919,-0.00007467,-0.00025761,0.00001138,
 0.00004394,0.00007591,-0.00001473,0.00001431,0.00000851,-0.00087087,-0
 .00025926,0.00066270,-0.00001077,-0.00002635,-0.00011084,0.00011608,0.
 00006451,-0.00010181,0.00050542,-0.04674768,0.00271508,-0.00359853,0.0
 0288180,0.01347807,-0.00519248,0.00189060,0.01110548,-0.00223955,0.059
 41129,0.00034190,-0.00007222,-0.00026557,0.00000659,0.00003955,0.00000
 182,0.00000636,-0.00000219,0.00004010,-0.00143620,-0.00033549,0.000464
 67,0.00014198,-0.00001080,-0.00004368,0.00022115,0.00007037,-0.0000970
 6,0.07637211,-0.00604788,-0.29057911,-0.00002110,0.00075952,-0.0024733
 3,0.00647631,-0.00017274,-0.01498093,-0.08362499,0.01477394,0.31361939
 ,-0.00521832,0.00040850,0.00402789,-0.00001389,-0.00027018,-0.00022898
 ,0.00010005,0.00002630,-0.00027236,0.01882196,0.00282764,-0.01033110,-
 0.00104293,-0.00054864,0.00125722,-0.00275850,-0.00056714,0.00099049,-
 0.06671876,0.00304203,-0.00412184,0.00795840,-0.02651777,-0.01195846,-
 0.00354689,0.02562470,0.00630793,0.00223986,0.01451141,0.00171516,0.19
 151578,0.00396948,-0.00084280,-0.00380786,0.00004716,0.00075049,0.0004
 7976,-0.00003954,0.00001446,0.00034709,-0.02215720,-0.00456899,0.00880
 672,0.00279199,0.00040302,-0.00168819,0.00286103,0.00098543,-0.0014041
 7,-0.02084034,-0.19315443,-0.07993560,0.00004736,-0.03922106,-0.009201
 43,0.00338437,-0.01752368,-0.00299490,0.00625898,-0.02228238,-0.011110
 90,-0.06342162,0.35221512,-0.00467168,0.00000876,0.00375317,0.00001530
 ,-0.00042701,-0.00045148,0.00017713,-0.00006911,-0.00025404,0.02694847
 ,0.00495328,-0.01031142,-0.00462799,-0.00056095,0.00252945,-0.00304824
 ,-0.00078007,0.00197428,-0.01270304,-0.05154002,-0.10022859,-0.0037034
 7,-0.00132400,0.00379575,-0.00273108,0.02268367,0.00525259,-0.00019859
 ,-0.04005560,-0.00800178,0.10401466,0.04330697,0.21058160,0.01494458,0
 .00187633,-0.00638477,0.00006575,0.00035294,0.00041357,-0.00031183,0.0
 0009424,-0.00000658,-0.14098605,-0.02265002,0.06443000,0.01030475,0.00
 083606,-0.00521374,0.00949081,0.00272215,-0.00520314,-0.01858022,0.025
 16255,-0.01197671,0.00314906,-0.00567064,0.00036601,0.00229045,0.00321
 257,0.00193371,0.00109133,-0.00493841,-0.00206485,-0.09132474,0.049511
 14,-0.05401258,0.12272562,-0.00214865,-0.00000910,0.00261602,0.0002506
 4,0.00012408,-0.00011055,-0.00005910,-0.00000570,-0.00031465,0.0045682
 7,0.00425840,-0.00130600,-0.00206001,-0.00035887,0.00065260,-0.0018638
 8,0.00048473,0.00099884,0.03679274,-0.03112424,0.03889516,0.00064229,0
 .00514453,0.00080275,0.00097363,-0.00809978,-0.00222930,-0.00144346,0.
 00499861,0.00185274,0.03600652,-0.07883668,0.03209343,-0.05327412,0.12
 452411,0.00052423,-0.00108782,-0.00262625,0.00016481,0.00096014,0.0004
 1904,0.00048866,0.00005381,0.00063985,0.02763319,0.00287222,-0.0096959
 8,0.00118571,-0.00017826,-0.00039010,0.00032005,0.00005266,-0.00057287
 ,-0.00342815,0.01038108,0.00180584,0.00035252,-0.00230584,-0.00068472,
 0.00185099,-0.00081062,0.00251875,0.00189400,-0.00211731,0.00307839,-0
 .07916961,0.06653732,-0.12869628,0.03215959,-0.09299784,0.17955532,-0.
 02832482,-0.00501309,0.00978197,0.00085377,0.00009268,-0.00027131,0.00
 085597,0.00006503,0.00010514,0.10724658,0.02194556,-0.05424828,-0.0136
 1333,-0.00019168,0.00578692,-0.01705756,-0.00376175,0.00971043,0.00224
 685,-0.01461492,-0.00146715,0.00118870,0.00389702,0.00097656,0.0000095
 0,0.00019382,-0.00011507,-0.00046310,0.00144575,0.00184214,-0.04946152
 ,0.03715701,-0.04500162,0.08712291,-0.01802031,0.01509839,-0.09104624,
 -0.00793603,-0.00219343,0.00266123,-0.00031494,-0.00033610,-0.00001552
 ,0.00039896,0.00027501,0.00008523,0.01216436,-0.01915849,-0.00395769,-
 0.00701784,-0.00153898,0.00510138,0.01000578,-0.00107485,-0.00477712,0
 .00442979,-0.00000457,-0.00003928,-0.00077924,0.00000355,0.00021870,-0
 .00037999,-0.00072002,0.00002116,-0.00025209,-0.00000341,0.00015392,0.
 01008484,0.00065442,-0.00704132,0.00064707,-0.02054111,0.01735968,-0.0
 2020064,0.04496018,0.00007516,0.00000938,-0.00057917,-0.00026172,-0.00
 024929,0.00021728,-0.00102475,-0.00005835,-0.00020859,-0.05392211,-0.0
 0765195,0.00029992,0.01569537,0.00292231,-0.00967209,0.00755024,0.0015
 9014,-0.00406031,-0.00159356,0.00512606,0.00005424,-0.00001879,-0.0015
 2792,0.00002623,0.00005451,0.00012401,0.00018654,0.00013869,-0.0002934
 3,-0.00095173,-0.01003463,-0.01156370,0.02222379,-0.01850292,0.0204218
 6,-0.04706068,0.06377930,-0.00846289,0.03837708,-0.15704721,-0.0084495
 9,0.04107797,-0.01667603,-0.00368796,0.00668972,-0.00142006,0.00035791
 ,0.00056358,-0.02930997,-0.01045935,-0.00093157,0.00182508,0.00061718,
 0.00028851,0.00196149,0.00081535,0.00025735,-0.00001670,0.00019188,0.0
 0009867,0.00001558,-0.00002214,-0.00002026,0.00002555,-0.00005110,0.00
 000871,-0.00001448,0.00000431,-0.00004913,0.00025715,-0.00022573,0.000
 29421,-0.00157471,0.00012508,0.00068928,0.00252520,-0.00048876,-0.0025
 2812,0.46883809,-0.01352202,-0.07869833,0.00914553,0.02790896,0.005746
 53,-0.01017954,-0.01804393,-0.00255186,0.00635182,-0.01684253,-0.00483
 150,0.00228525,0.00089620,0.00032993,0.00003071,0.00037178,0.00065581,
 -0.00007532,-0.00014635,-0.00113284,-0.00014938,0.00018626,0.00027636,
 -0.00008752,0.00005276,0.00014889,0.00000227,-0.00000870,0.00007542,0.
 00009350,-0.00110755,0.00129689,-0.00114877,0.00206891,-0.00046556,0.0
 0113822,-0.00285604,-0.00052554,-0.00009146,-0.01777194,0.56961888,0.0
 3008985,0.00528737,-0.08829162,0.00730285,0.00164204,-0.00267860,0.029
 03088,0.00444427,-0.00976621,-0.01534453,-0.00266305,0.00549226,0.0002
 9522,-0.00044429,0.00018019,0.00019234,0.00036196,-0.00012071,0.000243
 90,-0.00164803,-0.00049660,0.00009794,0.00036375,0.00010842,-0.0000742
 2,0.00021287,0.00000121,-0.00003722,0.00014971,0.00021743,-0.00259876,
 0.00258501,-0.00252577,0.00522773,-0.00159872,0.00161154,-0.00760275,-
 0.00125366,0.00184273,0.03872759,0.00700403,0.55839380,-0.00064664,-0.
 01849039,0.02712210,0.00157111,0.00045411,-0.00053737,-0.00606265,-0.0
 0132032,0.00232193,0.00204287,0.00031601,0.00149754,-0.00026898,0.0001
 4929,-0.00056407,-0.00012049,-0.00001718,-0.00011188,-0.00006990,0.000
 02440,0.00002577,0.00002142,-0.00001099,0.00001708,0.00000007,-0.00000
 422,-0.00000288,0.00002990,0.00000086,-0.00001588,0.00012715,-0.000140
 37,0.00013420,-0.00017536,0.00014971,-0.00028051,0.00025510,0.00015610
 ,0.00007012,-0.04714101,0.00609070,-0.00951395,0.05254840,-0.00035916,
 -0.00286495,0.00312300,-0.00027329,0.00055168,-0.00052137,-0.00093337,
 0.00108897,0.00004228,0.00064843,0.00000633,0.00041888,-0.00034947,-0.
 00002445,-0.00016083,-0.00001806,-0.00005949,0.00005089,0.00001637,0.0
 0004934,0.00000846,-0.00000276,-0.00000936,0.00001752,-0.00001113,-0.0
 0000556,-0.00000042,0.00000601,-0.00000225,-0.00000706,0.00000964,-0.0
 0005242,0.00001588,0.00010472,0.00002518,-0.00012904,-0.00015353,0.000
 02949,0.00000069,0.00555785,-0.12539532,0.11964340,-0.00495002,0.13193
 983,0.00026815,0.00585498,-0.00996658,-0.00006157,-0.00041046,0.000055
 81,0.00241323,-0.00024353,0.00054304,-0.00102715,-0.00094649,0.0009837
 0,0.00049307,0.00038946,0.00040383,0.00006240,0.00001344,0.00002309,0.
 00000649,0.00015404,0.00003644,-0.00001898,-0.00001679,-0.00003123,0.0
 0001576,-0.00001515,0.00000415,-0.00001875,-0.00001740,-0.00001313,0.0
 0013793,-0.00016800,0.00015981,-0.00040940,0.00008215,-0.00001462,0.00
 050370,-0.00009408,-0.00017970,-0.00887812,0.11976992,-0.23567345,0.00
 708857,-0.13262846,0.25520454,-0.01825999,-0.01560969,-0.02075439,0.00
 111049,0.00073988,-0.00051367,0.00150130,-0.00001206,0.00005806,-0.003
 59988,-0.00017531,0.00283040,0.00021084,0.00008486,0.00001346,0.000144
 33,-0.00008447,-0.00007912,0.00013062,-0.00072558,-0.00022678,0.000046
 06,0.00013891,0.00003323,-0.00003230,0.00009424,-0.00000109,-0.0000245
 6,0.00005942,0.00010292,-0.00106173,0.00107802,-0.00104583,0.00193144,
 -0.00062542,0.00084524,-0.00255273,-0.00051697,0.00037920,-0.12256810,
 -0.07069149,-0.09797363,-0.00099396,0.00011180,-0.00034692,0.13542189,
 -0.00152787,-0.00276140,-0.00292541,0.00003641,0.00041166,0.00035119,0
 .00007114,-0.00026906,0.00000866,-0.00114591,0.00068560,0.00065322,-0.
 00012355,-0.00004676,-0.00013955,0.00023271,0.00031859,0.00021445,0.00
 004669,-0.00019520,-0.00006382,0.00001372,0.00003099,0.00001882,-0.000
 01449,0.00002212,-0.00000072,-0.00000396,0.00002017,0.00002818,-0.0002
 9378,0.00028274,-0.00027560,0.00038122,-0.00016456,0.00031610,-0.00045
 917,0.00003036,-0.00012950,-0.07080782,-0.11386687,-0.08977996,0.01065
 296,0.00966607,0.01239901,0.07911366,0.11940085,0.00956430,0.00758992,
 0.00835696,-0.00092737,-0.00000730,0.00036256,-0.00083038,-0.00008715,
 0.00070491,0.00080058,-0.00004203,0.00014563,0.00020581,0.00005295,0.0
 0029993,-0.00001879,0.00010358,0.00004426,0.00000527,0.00011383,0.0000
 3093,-0.00001845,-0.00003258,-0.00000875,0.00000229,-0.00001483,-0.000
 00137,-0.00000226,-0.00001043,-0.00000928,0.00019902,-0.00016209,0.000
 14114,-0.00064528,0.00008544,0.00010680,0.00103143,0.00005188,-0.00036
 075,-0.09823927,-0.08993456,-0.17023096,-0.01412700,-0.01474428,-0.017
 95290,0.10557094,0.09885521,0.18266445,-0.01621104,0.02694106,0.005645
 13,-0.00561579,-0.00163339,0.00231901,0.00152582,-0.00024783,-0.000270
 11,0.00166257,0.00175893,0.00067638,-0.00008608,-0.00010914,-0.0000515
 4,-0.00022553,-0.00073359,-0.00035239,0.00013607,0.00029525,0.00000897
 ,-0.00006508,-0.00007550,0.00005091,-0.00003299,-0.00004105,-0.0000048
 6,-0.00000016,-0.00001846,-0.00001448,0.00012694,-0.00028175,0.0001601
 4,-0.00016379,-0.00001394,-0.00032839,0.00021472,-0.00000043,0.0001440
 3,-0.09967985,0.10341500,0.02193675,-0.00111703,0.00059599,-0.00022844
 ,0.00859627,-0.01617197,-0.00257084,0.11093496,-0.00332932,0.00586564,
 0.00092270,-0.00191460,0.00128032,0.00033190,0.00054770,0.00065796,-0.
 00040978,-0.00054418,0.00110609,0.00049661,0.00001185,-0.00005776,-0.0
 0002456,0.00047030,0.00007484,0.00020969,-0.00005294,0.00006256,0.0000
 2218,0.00000572,-0.00002223,-0.00000201,0.00000174,-0.00001129,0.00000
 251,0.00000582,-0.00000466,-0.00001243,0.00018512,-0.00012014,0.000160
 45,-0.00043672,0.00004595,-0.00004452,0.00047426,0.00014350,-0.0001659
 8,0.10429485,-0.25068088,-0.04430669,0.00693935,-0.01494310,-0.0041226
 3,0.00702022,-0.01356530,-0.00181756,-0.11367917,0.27016848,0.00602674
 ,-0.01089396,-0.00320265,0.00251290,0.00069043,-0.00006980,-0.00045359
 ,-0.00045278,0.00001791,-0.00108161,0.00043654,0.00008730,0.00000567,0
 .00008588,0.00002672,0.00015180,0.00016844,0.00032609,-0.00005107,-0.0
 0001448,0.00002345,0.00001487,0.00001484,-0.00003248,0.00001845,0.0000
 0607,0.00000290,-0.00000397,-0.00000496,-0.00000621,0.00006543,-0.0000
 2602,0.00005776,-0.00011065,0.00005606,0.00000598,0.00009022,-0.000011
 65,-0.00015479,0.02195087,-0.04415472,-0.05806367,-0.01312377,0.024870
 47,0.00641721,0.01110799,-0.01953027,-0.00429355,-0.02712029,0.0487601
 2,0.05885783\\0.00000081,-0.00000011,-0.00000066,0.00000015,-0.0000001
 1,0.00000007,-0.00000020,-0.00000025,0.00000003,-0.00000219,-0.0000001
 9,0.00000102,-0.00000071,0.00000116,0.00000011,0.00000068,0.00000013,-
 0.00000043,-0.00000020,0.00000270,-0.00000039,0.00000100,-0.00000027,-
 0.00000014,0.00000012,0.00000050,0.00000012,0.00000016,-0.00000022,-0.
 00000005,-0.00000905,0.00000475,-0.00000868,0.00000624,-0.00000796,0.0
 0001030,0.00000302,0.00000040,-0.00000204,0.00000008,0.,0.00000060,0.0
 0000002,-0.00000009,0.00000010,0.00000020,-0.00000025,0.00000011,-0.00
 000011,-0.00000019,-0.00000008\\\@


 ... UNTIL SCIENCE IS MIXED WITH EMOTION AND APPEALS TO THE HEART AND
 IMAGINATION , IT IS LIKE DEAD INORGANIC MATTER; AND WHEN IT IS SO MIXED
 AND SO TRANSFORMED IT IS LITERATURE.

                                  -- JOHN BURROUGHS
 Job cpu time:       2 days  0 hours 19 minutes 40.2 seconds.
 Elapsed time:       0 days  1 hours 14 minutes 51.2 seconds.
 File lengths (MBytes):  RWF=  75938 Int=      0 D2E=      0 Chk=     18 Scr=      1
 Normal termination of Gaussian 16 at Fri Jun  7 16:23:18 2019.
