 Entering Gaussian System, Link 0=g16
 Initial command:
 /ichec/packages/gaussian/16b01/l1.exe "/localscratch/350155/Gau-36086.inp" -scrdir="/localscratch/350155/"
 Entering Link 1 = /ichec/packages/gaussian/16b01/l1.exe PID=     36571.
  
 Copyright (c) 1988-2017, Gaussian, Inc.  All Rights Reserved.
  
 This is part of the Gaussian(R) 16 program.  It is based on
 the Gaussian(R) 09 system (copyright 2009, Gaussian, Inc.),
 the Gaussian(R) 03 system (copyright 2003, Gaussian, Inc.),
 the Gaussian(R) 98 system (copyright 1998, Gaussian, Inc.),
 the Gaussian(R) 94 system (copyright 1995, Gaussian, Inc.),
 the Gaussian 92(TM) system (copyright 1992, Gaussian, Inc.),
 the Gaussian 90(TM) system (copyright 1990, Gaussian, Inc.),
 the Gaussian 88(TM) system (copyright 1988, Gaussian, Inc.),
 the Gaussian 86(TM) system (copyright 1986, Carnegie Mellon
 University), and the Gaussian 82(TM) system (copyright 1983,
 Carnegie Mellon University). Gaussian is a federally registered
 trademark of Gaussian, Inc.
  
 This software contains proprietary and confidential information,
 including trade secrets, belonging to Gaussian, Inc.
  
 This software is provided under written license and may be
 used, copied, transmitted, or stored only in accord with that
 written license.
  
 The following legend is applicable only to US Government
 contracts under FAR:
  
                    RESTRICTED RIGHTS LEGEND
  
 Use, reproduction and disclosure by the US Government is
 subject to restrictions as set forth in subparagraphs (a)
 and (c) of the Commercial Computer Software - Restricted
 Rights clause in FAR 52.227-19.
  
 Gaussian, Inc.
 340 Quinnipiac St., Bldg. 40, Wallingford CT 06492
  
  
 ---------------------------------------------------------------
 Warning -- This program may not be used in any manner that
 competes with the business of Gaussian, Inc. or will provide
 assistance to any competitor of Gaussian, Inc.  The licensee
 of this program is prohibited from giving any competitor of
 Gaussian, Inc. access to this program.  By using this program,
 the user acknowledges that Gaussian, Inc. is engaged in the
 business of creating and licensing software in the field of
 computational chemistry and represents and warrants to the
 licensee that it is not a competitor of Gaussian, Inc. and that
 it will not use this program in any manner prohibited above.
 ---------------------------------------------------------------
  

 Cite this work as:
 Gaussian 16, Revision B.01,
 M. J. Frisch, G. W. Trucks, H. B. Schlegel, G. E. Scuseria, 
 M. A. Robb, J. R. Cheeseman, G. Scalmani, V. Barone, 
 G. A. Petersson, H. Nakatsuji, X. Li, M. Caricato, A. V. Marenich, 
 J. Bloino, B. G. Janesko, R. Gomperts, B. Mennucci, H. P. Hratchian, 
 J. V. Ortiz, A. F. Izmaylov, J. L. Sonnenberg, D. Williams-Young, 
 F. Ding, F. Lipparini, F. Egidi, J. Goings, B. Peng, A. Petrone, 
 T. Henderson, D. Ranasinghe, V. G. Zakrzewski, J. Gao, N. Rega, 
 G. Zheng, W. Liang, M. Hada, M. Ehara, K. Toyota, R. Fukuda, 
 J. Hasegawa, M. Ishida, T. Nakajima, Y. Honda, O. Kitao, H. Nakai, 
 T. Vreven, K. Throssell, J. A. Montgomery, Jr., J. E. Peralta, 
 F. Ogliaro, M. J. Bearpark, J. J. Heyd, E. N. Brothers, K. N. Kudin, 
 V. N. Staroverov, T. A. Keith, R. Kobayashi, J. Normand, 
 K. Raghavachari, A. P. Rendell, J. C. Burant, S. S. Iyengar, 
 J. Tomasi, M. Cossi, J. M. Millam, M. Klene, C. Adamo, R. Cammi, 
 J. W. Ochterski, R. L. Martin, K. Morokuma, O. Farkas, 
 J. B. Foresman, and D. J. Fox, Gaussian, Inc., Wallingford CT, 2016.
 
 ******************************************
 Gaussian 16:  ES64L-G16RevB.01 20-Dec-2017
                19-Jun-2019 
 ******************************************
 %mem=80GB
 %nproc=40
 Will use up to   40 processors via shared memory.
 ----------------------------------------------------------------------
 # opt=(calcfc,ts,noeigentest,maxcyc=500,modredundant) uB2PLYPD3/cc-pvt
 z scf=maxcyc=500 nosymm
 ----------------------------------------------------------------------
 1/5=1,6=500,10=4,11=1,18=120,38=1/1,3;
 2/9=110,12=2,15=1,17=6,18=5,40=1/2;
 3/5=16,6=1,11=2,25=1,30=1,71=2,74=-60,116=2,140=1/1,2,3;
 4//1;
 5/5=2,7=500,38=5/2;
 8/6=3,8=1,10=1,19=11,30=-1/1;
 9/15=3,16=-3/6;
 11/6=1,8=1,15=11,17=12,24=-1,27=1,28=-2,29=300,31=1,32=6,42=3/1,2,10;
 10/6=2,21=1,31=1/2;
 8/6=4,8=1,10=1,19=11,30=-1/11,4;
 10/5=1,20=4,31=1/2;
 11/12=2,14=11,16=1,17=2,28=-2,31=1,42=3,76=2/2,10,12;
 6/7=2,8=2,9=2,10=2/1;
 7/10=1,12=2,25=1,30=1,44=2/1,2,3,16;
 1/5=1,6=500,10=4,11=1,18=20/3(2);
 2/9=110,15=1/2;
 99//99;
 2/9=110,15=1/2;
 3/5=16,6=1,11=2,25=1,30=1,71=1,74=-60,116=2/1,2,3;
 4/5=5,16=3,69=1/1;
 5/5=2,7=500,38=5/2;
 8/6=4,10=1/1;
 9/15=2,16=-3/6;
 10/5=1,31=1/2;
 7/12=2,30=1/1,2,3,16;
 1/5=1,6=500,11=1,18=20/3(-8);
 2/9=110,15=1/2;
 6/7=2,8=2,9=2,10=2/1;
 99/9=10/99;
 -------------------
 Title Card Required
 -------------------
 Symbolic Z-matrix:
 Charge =  0 Multiplicity = 2
 C                     1.75366   0.16671   0.44536 
 H                     1.27755   1.12806   0.64184 
 H                     1.81845  -0.35224   1.40252 
 C                     0.91437  -0.63294  -0.5093 
 H                     0.62886  -0.13502  -1.43257 
 H                     1.22398  -1.66227  -0.66701 
 C                    -2.37086   1.05762  -0.01967 
 H                    -1.42708   1.58569  -0.16799 
 H                    -3.12418   1.45161  -0.69884 
 H                    -2.69797   1.17053   1.0126 
 O                    -2.24264  -0.31469  -0.35868 
 O                    -1.35419  -0.90315   0.56326 
 H                    -0.31018  -0.80377   0.06215 
 C                     3.16966   0.40358  -0.09734 
 H                     3.13981   0.94704  -1.04104 
 H                     3.76154   0.98447   0.60918 
 H                     3.68298  -0.54122  -0.27182 
 
 Add virtual bond connecting atoms H13        and O12        Dist= 2.20D+00.
 Add virtual bond connecting atoms H13        and C4         Dist= 2.57D+00.
 The following ModRedundant input section has been read:
 D    *          4      12    *    R                                           
 D       1       4      12      11 S  36 10.000                                
 

 GradGradGradGradGradGradGradGradGradGradGradGradGradGradGradGradGradGrad
 Berny optimization.
 Initialization pass.
                           ----------------------------
                           !    Initial Parameters    !
                           ! (Angstroms and Degrees)  !
 --------------------------                            --------------------------
 ! Name  Definition              Value          Derivative Info.                !
 --------------------------------------------------------------------------------
 ! R1    R(1,2)                  1.0906         calculate D2E/DX2 analytically  !
 ! R2    R(1,3)                  1.0907         calculate D2E/DX2 analytically  !
 ! R3    R(1,4)                  1.5017         calculate D2E/DX2 analytically  !
 ! R4    R(1,14)                 1.5348         calculate D2E/DX2 analytically  !
 ! R5    R(4,5)                  1.0871         calculate D2E/DX2 analytically  !
 ! R6    R(4,6)                  1.0864         calculate D2E/DX2 analytically  !
 ! R7    R(4,13)                 1.3621         calculate D2E/DX2 analytically  !
 ! R8    R(7,8)                  1.0916         calculate D2E/DX2 analytically  !
 ! R9    R(7,9)                  1.0881         calculate D2E/DX2 analytically  !
 ! R10   R(7,10)                 1.0887         calculate D2E/DX2 analytically  !
 ! R11   R(7,11)                 1.4194         calculate D2E/DX2 analytically  !
 ! R12   R(11,12)                1.4091         calculate D2E/DX2 analytically  !
 ! R13   R(12,13)                1.1623         calculate D2E/DX2 analytically  !
 ! R14   R(14,15)                1.0894         calculate D2E/DX2 analytically  !
 ! R15   R(14,16)                1.0895         calculate D2E/DX2 analytically  !
 ! R16   R(14,17)                1.0893         calculate D2E/DX2 analytically  !
 ! A1    A(2,1,3)              106.6921         calculate D2E/DX2 analytically  !
 ! A2    A(2,1,4)              109.8716         calculate D2E/DX2 analytically  !
 ! A3    A(2,1,14)             109.2932         calculate D2E/DX2 analytically  !
 ! A4    A(3,1,4)              109.7381         calculate D2E/DX2 analytically  !
 ! A5    A(3,1,14)             109.2032         calculate D2E/DX2 analytically  !
 ! A6    A(4,1,14)             111.9012         calculate D2E/DX2 analytically  !
 ! A7    A(1,4,5)              116.2812         calculate D2E/DX2 analytically  !
 ! A8    A(1,4,6)              115.9462         calculate D2E/DX2 analytically  !
 ! A9    A(1,4,13)             107.6094         calculate D2E/DX2 analytically  !
 ! A10   A(5,4,6)              112.6756         calculate D2E/DX2 analytically  !
 ! A11   A(5,4,13)             100.2318         calculate D2E/DX2 analytically  !
 ! A12   A(6,4,13)             101.4367         calculate D2E/DX2 analytically  !
 ! A13   A(8,7,9)              109.7918         calculate D2E/DX2 analytically  !
 ! A14   A(8,7,10)             109.7813         calculate D2E/DX2 analytically  !
 ! A15   A(8,7,11)             110.9263         calculate D2E/DX2 analytically  !
 ! A16   A(9,7,10)             110.2577         calculate D2E/DX2 analytically  !
 ! A17   A(9,7,11)             105.2798         calculate D2E/DX2 analytically  !
 ! A18   A(10,7,11)            110.7241         calculate D2E/DX2 analytically  !
 ! A19   A(7,11,12)            107.7249         calculate D2E/DX2 analytically  !
 ! A20   A(11,12,13)           104.3916         calculate D2E/DX2 analytically  !
 ! A21   A(1,14,15)            110.9783         calculate D2E/DX2 analytically  !
 ! A22   A(1,14,16)            110.7445         calculate D2E/DX2 analytically  !
 ! A23   A(1,14,17)            110.9484         calculate D2E/DX2 analytically  !
 ! A24   A(15,14,16)           108.0993         calculate D2E/DX2 analytically  !
 ! A25   A(15,14,17)           107.8693         calculate D2E/DX2 analytically  !
 ! A26   A(16,14,17)           108.0781         calculate D2E/DX2 analytically  !
 ! A27   L(4,13,12,8,-1)       177.9495         calculate D2E/DX2 analytically  !
 ! A28   L(4,13,12,8,-2)       181.2516         calculate D2E/DX2 analytically  !
 ! D1    D(2,1,4,5)             52.2815         calculate D2E/DX2 analytically  !
 ! D2    D(2,1,4,6)           -171.7934         calculate D2E/DX2 analytically  !
 ! D3    D(2,1,4,13)           -59.1006         calculate D2E/DX2 analytically  !
 ! D4    D(3,1,4,5)            169.2925         calculate D2E/DX2 analytically  !
 ! D5    D(3,1,4,6)            -54.7824         calculate D2E/DX2 analytically  !
 ! D6    D(3,1,4,13)            57.9104         calculate D2E/DX2 analytically  !
 ! D7    D(14,1,4,5)           -69.3162         calculate D2E/DX2 analytically  !
 ! D8    D(14,1,4,6)            66.6089         calculate D2E/DX2 analytically  !
 ! D9    D(14,1,4,13)          179.3016         calculate D2E/DX2 analytically  !
 ! D10   D(2,1,14,15)          -61.9862         calculate D2E/DX2 analytically  !
 ! D11   D(2,1,14,16)           58.0807         calculate D2E/DX2 analytically  !
 ! D12   D(2,1,14,17)          178.1013         calculate D2E/DX2 analytically  !
 ! D13   D(3,1,14,15)         -178.3568         calculate D2E/DX2 analytically  !
 ! D14   D(3,1,14,16)          -58.2899         calculate D2E/DX2 analytically  !
 ! D15   D(3,1,14,17)           61.7307         calculate D2E/DX2 analytically  !
 ! D16   D(4,1,14,15)           59.9439         calculate D2E/DX2 analytically  !
 ! D17   D(4,1,14,16)         -179.9892         calculate D2E/DX2 analytically  !
 ! D18   D(4,1,14,17)          -59.9687         calculate D2E/DX2 analytically  !
 ! D19   D(1,4,12,11)          120.8014         Scan                            !
 ! D20   D(8,7,11,12)           65.9246         calculate D2E/DX2 analytically  !
 ! D21   D(9,7,11,12)         -175.3727         calculate D2E/DX2 analytically  !
 ! D22   D(10,7,11,12)         -56.221          calculate D2E/DX2 analytically  !
 ! D23   D(7,11,12,13)         -91.6012         calculate D2E/DX2 analytically  !
 --------------------------------------------------------------------------------
 Trust Radius=3.00D-01 FncErr=1.00D-07 GrdErr=1.00D-07 EigMax=2.50D+02 EigMin=1.00D-04
 Number of optimizations in scan=  37
 Number of steps in this run=    102 maximum allowed number of steps=    102.
 Search for a saddle point of order  1.
 GradGradGradGradGradGradGradGradGradGradGradGradGradGradGradGradGradGrad

                          Input orientation:                          
 ---------------------------------------------------------------------
 Center     Atomic      Atomic             Coordinates (Angstroms)
 Number     Number       Type             X           Y           Z
 ---------------------------------------------------------------------
      1          6           0        1.753655    0.166705    0.445361
      2          1           0        1.277550    1.128059    0.641836
      3          1           0        1.818450   -0.352236    1.402520
      4          6           0        0.914373   -0.632940   -0.509298
      5          1           0        0.628858   -0.135017   -1.432569
      6          1           0        1.223978   -1.662267   -0.667008
      7          6           0       -2.370859    1.057620   -0.019667
      8          1           0       -1.427077    1.585690   -0.167987
      9          1           0       -3.124182    1.451605   -0.698838
     10          1           0       -2.697973    1.170526    1.012603
     11          8           0       -2.242643   -0.314689   -0.358680
     12          8           0       -1.354194   -0.903146    0.563262
     13          1           0       -0.310184   -0.803769    0.062150
     14          6           0        3.169657    0.403581   -0.097343
     15          1           0        3.139810    0.947042   -1.041041
     16          1           0        3.761537    0.984467    0.609176
     17          1           0        3.682976   -0.541218   -0.271815
 ---------------------------------------------------------------------
                    Distance matrix (angstroms):
                    1          2          3          4          5
     1  C    0.000000
     2  H    1.090633   0.000000
     3  H    1.090711   1.749996   0.000000
     4  C    1.501732   2.134976   2.133354   0.000000
     5  H    2.209712   2.513825   3.082214   1.087141   0.000000
     6  H    2.205235   3.082509   2.520421   1.086389   1.809073
     7  C    4.245185   3.708563   4.643341   3.726994   3.523773
     8  H    3.536491   2.860113   4.093348   3.243640   2.964265
     9  H    5.172374   4.612736   5.665612   4.548756   4.140174
    10  H    4.598523   3.993001   4.782146   4.314825   4.330256
    11  O    4.104707   3.933740   4.426704   3.176589   3.070999
    12  O    3.288952   3.325364   3.327691   2.523845   2.916481
    13  H    2.312596   2.566884   2.555691   1.362085   1.887648
    14  C    1.534829   2.156693   2.155599   2.516026   2.920373
    15  H    2.177095   2.516516   3.066775   2.780587   2.762069
    16  H    2.174203   2.488348   2.488324   3.460250   3.903286
    17  H    2.176643   3.067135   2.513080   2.780283   3.292413
                    6          7          8          9         10
     6  H    0.000000
     7  C    4.554085   0.000000
     8  H    4.222125   1.091596   0.000000
     9  H    5.348243   1.088114   1.783241   0.000000
    10  H    5.121280   1.088730   1.783628   1.785970   0.000000
    11  O    3.732090   1.419366   2.076765   2.003151   2.072102
    12  O    2.955808   2.284298   2.595061   3.204779   2.511526
    13  H    1.903245   2.778101   2.647627   3.685702   3.240793
    14  C    2.894462   5.579527   4.746824   6.408788   6.020736
    15  H    3.258651   5.605614   4.693245   6.293591   6.192504
    16  H    3.882403   6.164988   5.280830   7.024404   6.474770
    17  H    2.731227   6.266481   5.535988   7.105708   6.730253
                   11         12         13         14         15
    11  O    0.000000
    12  O    1.409113   0.000000
    13  H    2.037325   1.162302   0.000000
    14  C    5.466004   4.754909   3.686791   0.000000
    15  H    5.570313   5.117915   4.023037   1.089407   0.000000
    16  H    6.218901   5.453063   4.480618   1.089458   1.763848
    17  H    5.930584   5.118733   4.015693   1.089303   1.761152
                   16         17
    16  H    0.000000
    17  H    1.763528   0.000000
 Symmetry turned off by external request.
 Stoichiometry    C4H11O2(2)
 Framework group  C1[X(C4H11O2)]
 Deg. of freedom    45
 Full point group                 C1      NOp   1
 Rotational constants (GHZ):           7.3536490           1.1782535           1.1077140
 Standard basis: CC-pVTZ (5D, 7F)
   334 basis functions,   499 primitive gaussians,   375 cartesian basis functions
    26 alpha electrons       25 beta electrons
       nuclear repulsion energy       245.7485876990 Hartrees.
 NAtoms=   17 NActive=   17 NUniq=   17 SFac= 1.00D+00 NAtFMM=   60 NAOKFM=F Big=F
 Integral buffers will be    131072 words long.
 Raffenetti 2 integral format.
 Two-electron integral symmetry is turned off.
 Nuclear repulsion after empirical dispersion term =      245.7409310576 Hartrees.
 One-electron integrals computed using PRISM.
 NBasis=   334 RedAO= T EigKep=  7.89D-04  NBF=   334
 NBsUse=   334 1.00D-06 EigRej= -1.00D+00 NBFU=   334
 ExpMin= 1.03D-01 ExpMax= 1.53D+04 ExpMxC= 5.22D+02 IAcc=3 IRadAn=         5 AccDes= 0.00D+00
 Harris functional with IExCor=  419 and IRadAn=       5 diagonalized for initial guess.
 HarFok:  IExCor=  419 AccDes= 0.00D+00 IRadAn=         5 IDoV= 1 UseB2=F ITyADJ=14
 ICtDFT=  3500011 ScaDFX=  1.000000  1.000000  1.000000  1.000000
 FoFCou: FMM=F IPFlag=           0 FMFlag=      100000 FMFlg1=           0
         NFxFlg=           0 DoJE=T BraDBF=F KetDBF=T FulRan=T
         wScrn=  0.000000 ICntrl=       500 IOpCl=  0 I1Cent=   200000004 NGrid=           0
         NMat0=    1 NMatS0=      1 NMatT0=    0 NMatD0=    1 NMtDS0=    0 NMtDT0=    0
 Symmetry not used in FoFCou.
 Initial guess <Sx>= 0.0000 <Sy>= 0.0000 <Sz>= 0.5000 <S**2>= 0.7500 S= 0.5000
 Requested convergence on RMS density matrix=1.00D-08 within 500 cycles.
 Requested convergence on MAX density matrix=1.00D-06.
 Requested convergence on             energy=1.00D-06.
 No special actions if energy rises.
 Integral accuracy reduced to 1.0D-05 until final iterations.
 Initial convergence to 1.0D-05 achieved.  Increase integral accuracy.
 SCF Done:  E(UB2PLYPD3) =  -308.790358966     A.U. after   19 cycles
            NFock= 19  Conv=0.27D-08     -V/T= 2.0044
 <Sx>= 0.0000 <Sy>= 0.0000 <Sz>= 0.5000 <S**2>= 0.7683 S= 0.5091
 <L.S>=  0.00000000000    
 Annihilation of the first spin contaminant:
 S**2 before annihilation     0.7683,   after     0.7501
 DoSCS=T DFT=T ScalE2(SS,OS)=  0.270000  0.270000
 ExpMin= 1.03D-01 ExpMax= 1.53D+04 ExpMxC= 5.22D+02 IAcc=3 IRadAn=         5 AccDes= 0.00D+00
 HarFok:  IExCor=  205 AccDes= 0.00D+00 IRadAn=         5 IDoV=-2 UseB2=F ITyADJ=14
 ICtDFT= 12500011 ScaDFX=  1.000000  1.000000  1.000000  1.000000
 Range of M.O.s used for correlation:     7   334
 NBasis=   334 NAE=    26 NBE=    25 NFC=     6 NFV=     0
 NROrb=    328 NOA=    20 NOB=    19 NVA=   308 NVB=   309

 **** Warning!!: The largest alpha MO coefficient is  0.12084582D+02


 **** Warning!!: The largest beta MO coefficient is  0.12084593D+02

 DoSCS=T DFT=T ScalE2(SS,OS)=  0.270000  0.270000
 Disk-based method using ON**2 memory for 20 occupieds at a time.
 Permanent disk used for amplitudes=    91502950 words.
 Estimated scratch disk usage=  1749357074 words.
 Actual    scratch disk usage=  1691898898 words.
 JobTyp=2 Pass  1:  I=   7 to  26 NPSUse= 40 ParTrn=T ParDer=T DoDerP=T.
 (rs|ai) integrals will be sorted in core.
 Actual    scratch disk usage=  1691898898 words.
 JobTyp=3 Pass  1:  I=   7 to  25 NPSUse= 40 ParTrn=T ParDer=T DoDerP=T.
 (rs|ai) integrals will be sorted in core.
 Spin components of T(2) and E(2):
     alpha-alpha T2 =       0.6424081905D-01 E2=     -0.4720594505D-01
     alpha-beta  T2 =       0.3966108491D+00 E2=     -0.2990777335D+00
     beta-beta   T2 =       0.6832563265D-01 E2=     -0.4549531194D-01
 (S**2,0)=  0.76832D+00           (S**2,1)=  0.74276D+00
 Scaling Projection term by:   0.270000
 E(PUHF)=      -0.30879652398D+03        E(PMP2)=      -0.30918264680D+03
 E2(B2PLYPD3) =    -0.3917789905D+00 E(B2PLYPD3) =    -0.30918213795630D+03
 G2DrvN: will do    18 centers at a time, making    1 passes.
 Calling FoFCou, ICntrl=  3107 FMM=F I1Cent=   0 AccDes= 0.00D+00.
 End of G2Drv F.D. properties file   721 does not exist.
 End of G2Drv F.D. properties file   722 does not exist.
 End of G2Drv F.D. properties file   788 does not exist.
          IDoAtm=11111111111111111
          Differentiating once with respect to electric field.
                with respect to dipole field.
          Differentiating once with respect to nuclear coordinates.
 Keep R1 and R2 ints in memory in canonical form, NReq=3176103520.
          There are    54 degrees of freedom in the 1st order CPHF.  IDoFFX=6 NUNeed=    54.
     51 vectors produced by pass  0 Test12= 2.91D-14 1.85D-09 XBig12= 8.08D+01 5.40D+00.
 AX will form    51 AO Fock derivatives at one time.
     51 vectors produced by pass  1 Test12= 2.91D-14 1.85D-09 XBig12= 5.43D+00 3.12D-01.
     51 vectors produced by pass  2 Test12= 2.91D-14 1.85D-09 XBig12= 3.33D-01 9.93D-02.
     51 vectors produced by pass  3 Test12= 2.91D-14 1.85D-09 XBig12= 5.03D-03 7.70D-03.
     51 vectors produced by pass  4 Test12= 2.91D-14 1.85D-09 XBig12= 5.17D-05 7.63D-04.
     51 vectors produced by pass  5 Test12= 2.91D-14 1.85D-09 XBig12= 5.89D-07 8.55D-05.
     49 vectors produced by pass  6 Test12= 2.91D-14 1.85D-09 XBig12= 4.68D-09 5.83D-06.
     14 vectors produced by pass  7 Test12= 2.91D-14 1.85D-09 XBig12= 2.68D-11 3.95D-07.
      3 vectors produced by pass  8 Test12= 2.91D-14 1.85D-09 XBig12= 1.71D-13 2.95D-08.
      2 vectors produced by pass  9 Test12= 2.91D-14 1.85D-09 XBig12= 1.24D-15 2.82D-09.
 InvSVY:  IOpt=1 It=  1 EMax= 3.55D-15
 Solved reduced A of dimension   374 with    54 vectors.
 End of Minotr F.D. properties file   721 does not exist.
 End of Minotr F.D. properties file   722 does not exist.
 End of Minotr F.D. properties file   788 does not exist.
 MDV= 10737418240.
 DoSCS=T DFT=T ScalE2(SS,OS)=  0.270000  0.270000
 Form MO integral derivatives with frozen-active canonical formalism.
 Discarding MO integrals.
 Reordered first order wavefunction length =    368623478
 In DefCFB: NBatch=  1 ICI= 26 ICA=309 LFMax= 78
            Large arrays: LIAPS=  7882233000 LIARS=  1476247500 words.
 In DefCFB: NBatch=  1 ICI= 26 ICA=309 LFMax= 78
            Large arrays: LIAPS=  7882233000 LIARS=  1476247500 words.
 Semi-Direct transformation.
 ModeAB=           4 MOrb=            26 LenV=   10734139023
 LASXX=    460751213 LTotXX=   460751213 LenRXX=   928395468
 LTotAB=   467644255 MaxLAS=   533623116 LenRXY=           0
 NonZer=  1389146681 LenScr=  2091891712 LnRSAI=   533623116
 LnScr1=   803573760 LExtra=           0 Total=   4357484056
 MaxDsk=          -1 SrtSym=           T ITran=            4
 JobTyp=1 Pass  1:  I=   1 to  26.
 (rs|ai) integrals will be sorted in core.
 ModeAB=           4 MOrb=            25 LenV=   10734139023
 LASXX=    443915925 LTotXX=   443915925 LenRXX=   826983225
 LTotAB=   383067300 MaxLAS=   513099150 LenRXY=           0
 NonZer=  1270899150 LenScr=  1913825280 LnRSAI=   513099150
 LnScr1=   772667392 LExtra=           0 Total=   4026575047
 MaxDsk=          -1 SrtSym=           T ITran=            4
 JobTyp=2 Pass  1:  I=   1 to  25.
 (rs|ai) integrals will be sorted in core.
 DoSCS=T DFT=T ScalE2(SS,OS)=  0.270000  0.270000
 Spin components of T(2) and E(2):
     alpha-alpha T2 =       0.6424081905D-01 E2=     -0.4720594505D-01
     alpha-beta  T2 =       0.3966108491D+00 E2=     -0.2990777335D+00
     beta-beta   T2 =       0.6832563265D-01 E2=     -0.4549531194D-01
 E2(B2PLYPD3) =    -0.3917789905D+00 E(B2PLYPD3) =    -0.30918213795630D+03
 (S**2,0)=  0.76832D+00           (S**2,1)=  0.74276D+00
 Scaling Projection term by:   0.270000
 E(PUHF)=      -0.30879652398D+03        E(PMP2)=      -0.30918264680D+03
          IDoAtm=11111111111111111
          Differentiating once with respect to electric field.
                with respect to dipole field.
          Differentiating once with respect to nuclear coordinates.
 Keep R1 and R2 ints in memory in canonical form, NReq=3176238830.
          There are     1 degrees of freedom in the 1st order CPHF.  IDoFFX=0 NUNeed=     1.
 LinEq1:  Iter=  0 NonCon=     1 RMS=8.70D-04 Max=6.45D-02 NDo=     1
 AX will form     1 AO Fock derivatives at one time.
 LinEq1:  Iter=  1 NonCon=     1 RMS=2.79D-04 Max=9.02D-03 NDo=     1
 LinEq1:  Iter=  2 NonCon=     1 RMS=1.52D-04 Max=8.42D-03 NDo=     1
 LinEq1:  Iter=  3 NonCon=     1 RMS=5.94D-05 Max=1.05D-03 NDo=     1
 LinEq1:  Iter=  4 NonCon=     1 RMS=3.23D-05 Max=7.93D-04 NDo=     1
 LinEq1:  Iter=  5 NonCon=     1 RMS=2.14D-05 Max=6.42D-04 NDo=     1
 LinEq1:  Iter=  6 NonCon=     1 RMS=1.47D-05 Max=5.71D-04 NDo=     1
 LinEq1:  Iter=  7 NonCon=     1 RMS=5.54D-06 Max=9.91D-05 NDo=     1
 LinEq1:  Iter=  8 NonCon=     1 RMS=2.58D-06 Max=4.24D-05 NDo=     1
 LinEq1:  Iter=  9 NonCon=     1 RMS=1.07D-06 Max=2.32D-05 NDo=     1
 LinEq1:  Iter= 10 NonCon=     1 RMS=4.01D-07 Max=9.45D-06 NDo=     1
 LinEq1:  Iter= 11 NonCon=     1 RMS=1.36D-07 Max=3.01D-06 NDo=     1
 LinEq1:  Iter= 12 NonCon=     1 RMS=3.96D-08 Max=7.46D-07 NDo=     1
 LinEq1:  Iter= 13 NonCon=     1 RMS=1.49D-08 Max=3.52D-07 NDo=     1
 LinEq1:  Iter= 14 NonCon=     1 RMS=7.15D-09 Max=1.99D-07 NDo=     1
 LinEq1:  Iter= 15 NonCon=     1 RMS=2.39D-09 Max=9.09D-08 NDo=     1
 LinEq1:  Iter= 16 NonCon=     1 RMS=7.57D-10 Max=4.76D-08 NDo=     1
 LinEq1:  Iter= 17 NonCon=     1 RMS=2.53D-10 Max=1.40D-08 NDo=     1
 LinEq1:  Iter= 18 NonCon=     1 RMS=1.01D-10 Max=3.86D-09 NDo=     1
 LinEq1:  Iter= 19 NonCon=     0 RMS=3.95D-11 Max=8.52D-10 NDo=     1
 Linear equations converged to 1.000D-10 1.000D-09 after    19 iterations.
 End of Minotr F.D. properties file   721 does not exist.
 End of Minotr F.D. properties file   722 does not exist.
 End of Minotr F.D. properties file   788 does not exist.
 Symmetrizing basis deriv contribution to polar:
 IMax=3 JMax=2 DiffMx= 0.00D+00
 G2DrvN: will do    18 centers at a time, making    1 passes.
 Calling FoFCou, ICntrl=  3107 FMM=F I1Cent=   0 AccDes= 0.00D+00.
 End of G2Drv F.D. properties file   721 does not exist.
 End of G2Drv F.D. properties file   722 does not exist.
 End of G2Drv F.D. properties file   788 does not exist.
 DoSCS=T DFT=T ScalE2(SS,OS)=  0.270000  0.270000
 R2 and R3 integrals will be kept in memory, NReq=  4996899000.
 DD1Dir will call FoFMem   1 times, MxPair=      1926
 NAB=   650 NAA=   325 NBB=   300.
 Discarding MO integrals.

 **********************************************************************

            Population analysis using the SCF Density.

 **********************************************************************

 Alpha  occ. eigenvalues --  -19.78322 -19.78215 -10.65922 -10.63668 -10.62349
 Alpha  occ. eigenvalues --  -10.61306  -1.27095  -1.01869  -0.91790  -0.80594
 Alpha  occ. eigenvalues --   -0.77271  -0.69446  -0.60699  -0.55955  -0.54773
 Alpha  occ. eigenvalues --   -0.54239  -0.51274  -0.49298  -0.47139  -0.45996
 Alpha  occ. eigenvalues --   -0.43852  -0.42215  -0.40737  -0.36510  -0.36394
 Alpha  occ. eigenvalues --   -0.29909
 Alpha virt. eigenvalues --    0.06934   0.09334   0.11059   0.11480   0.12787
 Alpha virt. eigenvalues --    0.13475   0.15253   0.15873   0.16242   0.17896
 Alpha virt. eigenvalues --    0.18642   0.20859   0.22313   0.24740   0.27706
 Alpha virt. eigenvalues --    0.30180   0.30482   0.32030   0.33832   0.34254
 Alpha virt. eigenvalues --    0.35184   0.38468   0.40498   0.41816   0.45952
 Alpha virt. eigenvalues --    0.47835   0.48207   0.49953   0.51277   0.51740
 Alpha virt. eigenvalues --    0.52488   0.53024   0.53723   0.53933   0.54564
 Alpha virt. eigenvalues --    0.55737   0.56541   0.57410   0.58954   0.60266
 Alpha virt. eigenvalues --    0.61449   0.64991   0.68309   0.68980   0.71203
 Alpha virt. eigenvalues --    0.76052   0.76732   0.78428   0.79795   0.81521
 Alpha virt. eigenvalues --    0.84397   0.84985   0.88703   0.89531   0.92609
 Alpha virt. eigenvalues --    0.94000   0.95236   0.97043   0.99100   1.03085
 Alpha virt. eigenvalues --    1.03951   1.06110   1.07434   1.07934   1.09924
 Alpha virt. eigenvalues --    1.11197   1.11389   1.13391   1.14554   1.16337
 Alpha virt. eigenvalues --    1.16665   1.17837   1.21104   1.21747   1.22690
 Alpha virt. eigenvalues --    1.24027   1.26706   1.27415   1.28982   1.31631
 Alpha virt. eigenvalues --    1.33579   1.34511   1.35485   1.36824   1.38778
 Alpha virt. eigenvalues --    1.39553   1.40479   1.40915   1.43093   1.45773
 Alpha virt. eigenvalues --    1.46647   1.49268   1.50770   1.53146   1.56337
 Alpha virt. eigenvalues --    1.60659   1.61460   1.63300   1.64505   1.66591
 Alpha virt. eigenvalues --    1.71649   1.74352   1.76082   1.79378   1.87406
 Alpha virt. eigenvalues --    1.94154   1.99454   2.04769   2.12392   2.18900
 Alpha virt. eigenvalues --    2.21142   2.28138   2.32236   2.36902   2.37824
 Alpha virt. eigenvalues --    2.39637   2.40746   2.42261   2.45498   2.47643
 Alpha virt. eigenvalues --    2.51154   2.54950   2.56202   2.59538   2.61950
 Alpha virt. eigenvalues --    2.64281   2.65934   2.66513   2.69429   2.74787
 Alpha virt. eigenvalues --    2.76551   2.78691   2.81221   2.85356   2.89098
 Alpha virt. eigenvalues --    2.90262   2.91071   2.92085   2.93295   2.94554
 Alpha virt. eigenvalues --    2.94814   2.96653   3.00189   3.01046   3.03650
 Alpha virt. eigenvalues --    3.04530   3.07362   3.09873   3.10746   3.12927
 Alpha virt. eigenvalues --    3.14617   3.15416   3.15877   3.17685   3.19488
 Alpha virt. eigenvalues --    3.20042   3.20954   3.22552   3.23020   3.23881
 Alpha virt. eigenvalues --    3.26708   3.28967   3.29743   3.32218   3.35987
 Alpha virt. eigenvalues --    3.40371   3.40959   3.41767   3.43594   3.45474
 Alpha virt. eigenvalues --    3.49289   3.50561   3.50924   3.52294   3.53663
 Alpha virt. eigenvalues --    3.53904   3.55301   3.57947   3.58281   3.60929
 Alpha virt. eigenvalues --    3.62516   3.63821   3.65817   3.66291   3.71486
 Alpha virt. eigenvalues --    3.73668   3.78921   3.80474   3.84824   3.85547
 Alpha virt. eigenvalues --    3.87478   3.87728   3.88517   3.89533   3.89630
 Alpha virt. eigenvalues --    3.93164   3.94282   3.95592   3.97224   3.98034
 Alpha virt. eigenvalues --    3.98700   4.02079   4.03617   4.04363   4.06811
 Alpha virt. eigenvalues --    4.07900   4.08993   4.10407   4.11843   4.14901
 Alpha virt. eigenvalues --    4.15930   4.17759   4.20251   4.21790   4.23238
 Alpha virt. eigenvalues --    4.24274   4.25013   4.27691   4.29296   4.30504
 Alpha virt. eigenvalues --    4.34102   4.35599   4.37935   4.38601   4.40708
 Alpha virt. eigenvalues --    4.42667   4.44188   4.45084   4.47852   4.53522
 Alpha virt. eigenvalues --    4.54042   4.60707   4.64847   4.65870   4.68102
 Alpha virt. eigenvalues --    4.73015   4.77798   4.80194   4.82004   4.87073
 Alpha virt. eigenvalues --    4.89622   4.93070   4.94510   4.97844   4.99713
 Alpha virt. eigenvalues --    5.00110   5.01719   5.02866   5.04293   5.05385
 Alpha virt. eigenvalues --    5.06538   5.06871   5.16106   5.17283   5.21473
 Alpha virt. eigenvalues --    5.27556   5.28579   5.30299   5.33590   5.34473
 Alpha virt. eigenvalues --    5.35691   5.37272   5.39458   5.40469   5.44903
 Alpha virt. eigenvalues --    5.46288   5.47597   5.49617   5.50289   5.52699
 Alpha virt. eigenvalues --    5.59581   5.63017   5.66302   5.67035   5.68674
 Alpha virt. eigenvalues --    5.73046   5.78788   5.87098   5.94078   5.96662
 Alpha virt. eigenvalues --    6.02452   6.04855   6.05717   6.09207   6.09506
 Alpha virt. eigenvalues --    6.12189   6.25410   6.32185   6.37989   6.42438
 Alpha virt. eigenvalues --    6.63997   6.75335   6.76009   6.83382   6.96101
 Alpha virt. eigenvalues --    7.05276   7.06831   7.19907   7.42255   7.44215
 Alpha virt. eigenvalues --    7.58593   7.73186   9.90558  10.59241  12.50399
 Alpha virt. eigenvalues --   13.14644  13.40784  13.64415
  Beta  occ. eigenvalues --  -19.78192 -19.76606 -10.65931 -10.62426 -10.62380
  Beta  occ. eigenvalues --  -10.61186  -1.25246  -0.98982  -0.90557  -0.78585
  Beta  occ. eigenvalues --   -0.76661  -0.68361  -0.57361  -0.55201  -0.53945
  Beta  occ. eigenvalues --   -0.53938  -0.50307  -0.46821  -0.46665  -0.43991
  Beta  occ. eigenvalues --   -0.42936  -0.41795  -0.40557  -0.35177  -0.33204
  Beta virt. eigenvalues --   -0.04438   0.07101   0.09500   0.11393   0.11733
  Beta virt. eigenvalues --    0.12852   0.14067   0.15339   0.15921   0.16425
  Beta virt. eigenvalues --    0.18053   0.18836   0.21499   0.22733   0.25065
  Beta virt. eigenvalues --    0.28082   0.30349   0.30690   0.32144   0.34383
  Beta virt. eigenvalues --    0.35006   0.35648   0.38937   0.41063   0.42692
  Beta virt. eigenvalues --    0.46072   0.48380   0.48555   0.50393   0.51599
  Beta virt. eigenvalues --    0.52239   0.52639   0.53230   0.53991   0.54728
  Beta virt. eigenvalues --    0.55759   0.56409   0.57546   0.57746   0.59723
  Beta virt. eigenvalues --    0.60572   0.61917   0.65536   0.68637   0.69201
  Beta virt. eigenvalues --    0.71655   0.76586   0.77166   0.78851   0.79943
  Beta virt. eigenvalues --    0.82008   0.84418   0.85275   0.89317   0.89899
  Beta virt. eigenvalues --    0.92732   0.94608   0.95533   0.97047   0.99411
  Beta virt. eigenvalues --    1.03188   1.04121   1.06221   1.07704   1.08736
  Beta virt. eigenvalues --    1.10206   1.11355   1.11565   1.13545   1.14654
  Beta virt. eigenvalues --    1.16608   1.16809   1.17892   1.21531   1.22041
  Beta virt. eigenvalues --    1.23010   1.24324   1.26840   1.27529   1.29296
  Beta virt. eigenvalues --    1.32046   1.33901   1.35074   1.35769   1.37375
  Beta virt. eigenvalues --    1.38861   1.39677   1.40968   1.41259   1.43402
  Beta virt. eigenvalues --    1.46095   1.46789   1.49576   1.51261   1.53546
  Beta virt. eigenvalues --    1.56730   1.61053   1.61922   1.63484   1.64692
  Beta virt. eigenvalues --    1.67252   1.72108   1.74748   1.76621   1.79669
  Beta virt. eigenvalues --    1.90384   1.95101   2.00115   2.05660   2.12689
  Beta virt. eigenvalues --    2.20738   2.21688   2.28844   2.32657   2.37136
  Beta virt. eigenvalues --    2.38385   2.39956   2.41117   2.43288   2.45653
  Beta virt. eigenvalues --    2.48131   2.51326   2.55076   2.56737   2.59951
  Beta virt. eigenvalues --    2.62279   2.65007   2.66643   2.67253   2.69613
  Beta virt. eigenvalues --    2.75010   2.77391   2.78832   2.81501   2.85449
  Beta virt. eigenvalues --    2.89616   2.90607   2.91311   2.92301   2.94004
  Beta virt. eigenvalues --    2.95038   2.96076   2.97017   3.00430   3.01893
  Beta virt. eigenvalues --    3.04001   3.04667   3.07702   3.10220   3.11019
  Beta virt. eigenvalues --    3.13053   3.14866   3.15671   3.16128   3.18001
  Beta virt. eigenvalues --    3.19842   3.20367   3.21229   3.23013   3.23963
  Beta virt. eigenvalues --    3.24912   3.26827   3.29024   3.29850   3.34096
  Beta virt. eigenvalues --    3.36070   3.40522   3.41624   3.41900   3.43927
  Beta virt. eigenvalues --    3.45783   3.49703   3.50890   3.51436   3.52561
  Beta virt. eigenvalues --    3.53768   3.54349   3.55534   3.58363   3.58551
  Beta virt. eigenvalues --    3.61282   3.62713   3.63976   3.66009   3.66391
  Beta virt. eigenvalues --    3.71997   3.73887   3.79340   3.80794   3.85035
  Beta virt. eigenvalues --    3.85677   3.87533   3.87836   3.88353   3.89651
  Beta virt. eigenvalues --    3.89840   3.93213   3.94581   3.95744   3.97480
  Beta virt. eigenvalues --    3.98164   3.98706   4.02377   4.03888   4.04501
  Beta virt. eigenvalues --    4.06905   4.07970   4.09172   4.10508   4.12206
  Beta virt. eigenvalues --    4.14942   4.16017   4.17970   4.20285   4.22046
  Beta virt. eigenvalues --    4.23404   4.24354   4.25096   4.27855   4.29806
  Beta virt. eigenvalues --    4.30712   4.34566   4.35717   4.37922   4.38834
  Beta virt. eigenvalues --    4.40941   4.42760   4.44474   4.45305   4.48120
  Beta virt. eigenvalues --    4.53877   4.54572   4.61593   4.65339   4.66583
  Beta virt. eigenvalues --    4.68291   4.73637   4.78126   4.80554   4.82191
  Beta virt. eigenvalues --    4.87492   4.90164   4.93537   4.94636   4.98076
  Beta virt. eigenvalues --    4.99864   5.00266   5.01879   5.03034   5.04651
  Beta virt. eigenvalues --    5.05549   5.06830   5.07344   5.16857   5.17538
  Beta virt. eigenvalues --    5.22089   5.28483   5.28947   5.30560   5.33924
  Beta virt. eigenvalues --    5.34890   5.35940   5.37761   5.39691   5.41156
  Beta virt. eigenvalues --    5.45123   5.46600   5.47853   5.49780   5.50396
  Beta virt. eigenvalues --    5.52786   5.59809   5.63112   5.66623   5.67382
  Beta virt. eigenvalues --    5.69323   5.73513   5.79277   5.88771   5.94132
  Beta virt. eigenvalues --    5.96962   6.03673   6.04925   6.05859   6.09541
  Beta virt. eigenvalues --    6.10295   6.12258   6.25821   6.34236   6.38629
  Beta virt. eigenvalues --    6.43908   6.64970   6.77312   6.78461   6.84651
  Beta virt. eigenvalues --    6.97811   7.05916   7.08416   7.22144   7.42513
  Beta virt. eigenvalues --    7.46291   7.60520   7.73818   9.91427  10.60302
  Beta virt. eigenvalues --   12.51027  13.15091  13.40785  13.64509
          Condensed to atoms (all electrons):
               1          2          3          4          5          6
     1  C    4.861636   0.416533   0.415494   0.324644  -0.035649  -0.032292
     2  H    0.416533   0.594454  -0.034291  -0.038099  -0.005033   0.006302
     3  H    0.415494  -0.034291   0.587361  -0.035574   0.006417  -0.004905
     4  C    0.324644  -0.038099  -0.035574   5.159050   0.396783   0.402762
     5  H   -0.035649  -0.005033   0.006417   0.396783   0.551648  -0.027286
     6  H   -0.032292   0.006302  -0.004905   0.402762  -0.027286   0.539136
     7  C   -0.000366  -0.000203   0.000076  -0.003250   0.000034   0.000035
     8  H   -0.000468  -0.001118   0.000102   0.000501  -0.002384  -0.000121
     9  H    0.000075   0.000060  -0.000007   0.000287  -0.000105   0.000005
    10  H    0.000035   0.000248  -0.000010  -0.000545   0.000345   0.000004
    11  O    0.000131   0.000197  -0.000080   0.005255   0.004211   0.000418
    12  O    0.006292   0.001164   0.000636  -0.083066  -0.001567   0.000696
    13  H   -0.010048  -0.002710  -0.001158   0.212487  -0.006193  -0.007542
    14  C    0.315862  -0.036213  -0.036930  -0.049917  -0.004100  -0.002859
    15  H   -0.035242  -0.005587   0.007341  -0.002713   0.002618  -0.000126
    16  H   -0.033037  -0.004269  -0.004578   0.007534  -0.000124  -0.000090
    17  H   -0.035146   0.007350  -0.005533  -0.003524  -0.000139   0.002862
               7          8          9         10         11         12
     1  C   -0.000366  -0.000468   0.000075   0.000035   0.000131   0.006292
     2  H   -0.000203  -0.001118   0.000060   0.000248   0.000197   0.001164
     3  H    0.000076   0.000102  -0.000007  -0.000010  -0.000080   0.000636
     4  C   -0.003250   0.000501   0.000287  -0.000545   0.005255  -0.083066
     5  H    0.000034  -0.002384  -0.000105   0.000345   0.004211  -0.001567
     6  H    0.000035  -0.000121   0.000005   0.000004   0.000418   0.000696
     7  C    4.577944   0.389936   0.401162   0.408877   0.312648  -0.038990
     8  H    0.389936   0.702289  -0.036249  -0.064984  -0.049174  -0.005185
     9  H    0.401162  -0.036249   0.587233  -0.029698  -0.025982   0.006681
    10  H    0.408877  -0.064984  -0.029698   0.639624  -0.043189   0.004834
    11  O    0.312648  -0.049174  -0.025982  -0.043189   7.943493   0.070229
    12  O   -0.038990  -0.005185   0.006681   0.004834   0.070229   8.060113
    13  H    0.004009   0.004130  -0.001160   0.001050  -0.029501   0.202036
    14  C   -0.000013   0.000144   0.000007  -0.000008  -0.000024   0.000341
    15  H   -0.000001   0.000042  -0.000000  -0.000003  -0.000007   0.000009
    16  H   -0.000001  -0.000010  -0.000000   0.000000   0.000001   0.000006
    17  H    0.000000  -0.000002   0.000000   0.000000   0.000000   0.000005
              13         14         15         16         17
     1  C   -0.010048   0.315862  -0.035242  -0.033037  -0.035146
     2  H   -0.002710  -0.036213  -0.005587  -0.004269   0.007350
     3  H   -0.001158  -0.036930   0.007341  -0.004578  -0.005533
     4  C    0.212487  -0.049917  -0.002713   0.007534  -0.003524
     5  H   -0.006193  -0.004100   0.002618  -0.000124  -0.000139
     6  H   -0.007542  -0.002859  -0.000126  -0.000090   0.002862
     7  C    0.004009  -0.000013  -0.000001  -0.000001   0.000000
     8  H    0.004130   0.000144   0.000042  -0.000010  -0.000002
     9  H   -0.001160   0.000007  -0.000000  -0.000000   0.000000
    10  H    0.001050  -0.000008  -0.000003   0.000000   0.000000
    11  O   -0.029501  -0.000024  -0.000007   0.000001   0.000000
    12  O    0.202036   0.000341   0.000009   0.000006   0.000005
    13  H    0.415737   0.000544  -0.000071  -0.000066  -0.000133
    14  C    0.000544   4.883465   0.407416   0.407719   0.409203
    15  H   -0.000071   0.407416   0.594464  -0.030111  -0.033242
    16  H   -0.000066   0.407719  -0.030111   0.581250  -0.029544
    17  H   -0.000133   0.409203  -0.033242  -0.029544   0.590539
          Atomic-Atomic Spin Densities.
               1          2          3          4          5          6
     1  C   -0.029539   0.001404   0.001876  -0.030054  -0.000460   0.000366
     2  H    0.001404   0.005881   0.001099  -0.003144   0.000776   0.000084
     3  H    0.001876   0.001099   0.007053  -0.004018   0.000007   0.000979
     4  C   -0.030054  -0.003144  -0.004018   0.719326   0.006612   0.003769
     5  H   -0.000460   0.000776   0.000007   0.006612  -0.028552   0.002592
     6  H    0.000366   0.000084   0.000979   0.003769   0.002592  -0.023648
     7  C   -0.000138  -0.000071  -0.000007   0.001353  -0.000372  -0.000041
     8  H    0.000729   0.000608   0.000087  -0.004754   0.000887   0.000129
     9  H   -0.000011  -0.000008  -0.000000   0.000084  -0.000011  -0.000002
    10  H   -0.000179  -0.000110  -0.000030   0.001257  -0.000114  -0.000023
    11  O   -0.000452  -0.000129  -0.000041   0.010939  -0.001215  -0.000342
    12  O    0.004809   0.000795   0.000908  -0.088250   0.002602   0.002632
    13  H   -0.000612  -0.000261  -0.000519   0.058263   0.003698   0.001155
    14  C    0.018078  -0.003374  -0.003206  -0.016578  -0.000668  -0.001468
    15  H   -0.000063   0.000169   0.000092   0.001122   0.000130   0.000136
    16  H   -0.003325   0.000832   0.000932   0.001822   0.000118   0.000162
    17  H    0.000369   0.000034   0.000070   0.000370   0.000037   0.000048
               7          8          9         10         11         12
     1  C   -0.000138   0.000729  -0.000011  -0.000179  -0.000452   0.004809
     2  H   -0.000071   0.000608  -0.000008  -0.000110  -0.000129   0.000795
     3  H   -0.000007   0.000087  -0.000000  -0.000030  -0.000041   0.000908
     4  C    0.001353  -0.004754   0.000084   0.001257   0.010939  -0.088250
     5  H   -0.000372   0.000887  -0.000011  -0.000114  -0.001215   0.002602
     6  H   -0.000041   0.000129  -0.000002  -0.000023  -0.000342   0.002632
     7  C   -0.004412   0.002453   0.000427  -0.002472   0.001478  -0.003018
     8  H    0.002453   0.003977  -0.000495  -0.001852  -0.001176   0.004187
     9  H    0.000427  -0.000495  -0.001907   0.000911   0.000087  -0.000184
    10  H   -0.002472  -0.001852   0.000911   0.004493  -0.000734  -0.000401
    11  O    0.001478  -0.001176   0.000087  -0.000734   0.045338  -0.039750
    12  O   -0.003018   0.004187  -0.000184  -0.000401  -0.039750   0.577809
    13  H    0.001036  -0.003309   0.000102   0.001386   0.009556  -0.049647
    14  C    0.000022  -0.000149  -0.000000   0.000011   0.000024  -0.000370
    15  H   -0.000002   0.000017  -0.000000  -0.000001  -0.000003   0.000019
    16  H   -0.000001   0.000017  -0.000000  -0.000001  -0.000001   0.000019
    17  H   -0.000000   0.000003  -0.000000  -0.000000  -0.000001   0.000009
              13         14         15         16         17
     1  C   -0.000612   0.018078  -0.000063  -0.003325   0.000369
     2  H   -0.000261  -0.003374   0.000169   0.000832   0.000034
     3  H   -0.000519  -0.003206   0.000092   0.000932   0.000070
     4  C    0.058263  -0.016578   0.001122   0.001822   0.000370
     5  H    0.003698  -0.000668   0.000130   0.000118   0.000037
     6  H    0.001155  -0.001468   0.000136   0.000162   0.000048
     7  C    0.001036   0.000022  -0.000002  -0.000001  -0.000000
     8  H   -0.003309  -0.000149   0.000017   0.000017   0.000003
     9  H    0.000102  -0.000000  -0.000000  -0.000000  -0.000000
    10  H    0.001386   0.000011  -0.000001  -0.000001  -0.000000
    11  O    0.009556   0.000024  -0.000003  -0.000001  -0.000001
    12  O   -0.049647  -0.000370   0.000019   0.000019   0.000009
    13  H   -0.097185   0.000109  -0.000048  -0.000035  -0.000002
    14  C    0.000109   0.042315  -0.001091  -0.003330  -0.000215
    15  H   -0.000048  -0.001091  -0.002312   0.000863   0.000499
    16  H   -0.000035  -0.003330   0.000863   0.011239   0.000435
    17  H   -0.000002  -0.000215   0.000499   0.000435  -0.002574
 Mulliken charges and spin densities:
               1          2
     1  C   -0.158453  -0.037202
     2  H    0.101216   0.004584
     3  H    0.105639   0.005281
     4  C   -0.292614   0.658120
     5  H    0.120523  -0.013932
     6  H    0.123000  -0.013472
     7  C   -0.051899  -0.003765
     8  H    0.062551   0.001359
     9  H    0.097691  -0.001009
    10  H    0.083418   0.002140
    11  O   -0.188626   0.023580
    12  O   -0.224232   0.412168
    13  H    0.218587  -0.076315
    14  C   -0.294638   0.030110
    15  H    0.095212  -0.000474
    16  H    0.105320   0.009745
    17  H    0.097304  -0.000919
 Sum of Mulliken charges =  -0.00000   1.00000
 Mulliken charges and spin densities with hydrogens summed into heavy atoms:
               1          2
     1  C    0.048402  -0.027336
     4  C   -0.049091   0.630716
     7  C    0.191762  -0.001275
    11  O   -0.188626   0.023580
    12  O   -0.005645   0.335853
    14  C    0.003198   0.038462
 APT charges:
               1
     1  C   -0.034631
     2  H   -0.030037
     3  H   -0.023864
     4  C    0.454904
     5  H   -0.059771
     6  H   -0.049050
     7  C    0.427190
     8  H   -0.042079
     9  H   -0.007498
    10  H   -0.028619
    11  O   -0.466041
    12  O    0.214477
    13  H   -0.374139
    14  C    0.109137
    15  H   -0.019024
    16  H   -0.052457
    17  H   -0.018497
 Sum of APT charges =  -0.00000
 APT charges with hydrogens summed into heavy atoms:
               1
     1  C   -0.088533
     4  C    0.346084
     7  C    0.348994
    11  O   -0.466041
    12  O   -0.159663
    14  C    0.019158
 Electronic spatial extent (au):  <R**2>=           1090.7671
 Charge=              0.0000 electrons
 Dipole moment (field-independent basis, Debye):
    X=              1.8664    Y=              1.9728    Z=             -0.3791  Tot=              2.7421
 Quadrupole moment (field-independent basis, Debye-Ang):
   XX=            -39.4573   YY=            -38.8672   ZZ=            -39.8989
   XY=             -5.7236   XZ=              0.3209   YZ=              0.2782
 Traceless Quadrupole moment (field-independent basis, Debye-Ang):
   XX=             -0.0496   YY=              0.5406   ZZ=             -0.4911
   XY=             -5.7236   XZ=              0.3209   YZ=              0.2782
 Octapole moment (field-independent basis, Debye-Ang**2):
  XXX=            -16.9268  YYY=             -3.1556  ZZZ=              0.6092  XYY=             -3.8244
  XXY=             10.1791  XXZ=              2.6412  XZZ=             -4.2176  YZZ=              0.0408
  YYZ=             -0.7974  XYZ=              0.4554
 Hexadecapole moment (field-independent basis, Debye-Ang**3):
 XXXX=          -1149.2512 YYYY=           -179.0187 ZZZZ=           -103.5314 XXXY=            -26.5050
 XXXZ=              6.6213 YYYX=             -2.2550 YYYZ=              0.4773 ZZZX=              1.5181
 ZZZY=             -3.0576 XXYY=           -215.9452 XXZZ=           -207.5761 YYZZ=            -46.9461
 XXYZ=             -1.4406 YYXZ=              2.0128 ZZXY=             -0.0227
 N-N= 2.457409310576D+02 E-N=-1.214190636744D+03  KE= 3.074477129974D+02
  Exact polarizability: 108.129  -4.424  59.098  -4.217  -0.223  56.297
 Approx polarizability:  85.834  -1.904  65.835  -1.528  -2.541  66.030
                          Isotropic Fermi Contact Couplings
        Atom                 a.u.       MegaHertz       Gauss      10(-4) cm-1
     1  C(13)             -0.01268     -14.25558      -5.08675      -4.75515
     2  H(1)               0.00221       9.85891       3.51790       3.28858
     3  H(1)               0.00328      14.66480       5.23277       4.89165
     4  C(13)              0.09452     106.25877      37.91577      35.44411
     5  H(1)              -0.00418     -18.67778      -6.66469      -6.23024
     6  H(1)              -0.00426     -19.05215      -6.79828      -6.35511
     7  C(13)             -0.00349      -3.92263      -1.39969      -1.30845
     8  H(1)               0.00216       9.66411       3.44840       3.22360
     9  H(1)              -0.00011      -0.51262      -0.18292      -0.17099
    10  H(1)               0.00050       2.25248       0.80374       0.75135
    11  O(17)              0.01403      -8.50726      -3.03560      -2.83772
    12  O(17)              0.04446     -26.95375      -9.61777      -8.99080
    13  H(1)              -0.02360    -105.50304     -37.64611     -35.19203
    14  C(13)              0.03920      44.07322      15.72642      14.70124
    15  H(1)              -0.00052      -2.31798      -0.82711      -0.77320
    16  H(1)               0.00359      16.04793       5.72630       5.35301
    17  H(1)              -0.00047      -2.10059      -0.74954      -0.70068
 --------------------------------------------------------
       Center         ----  Spin Dipole Couplings  ----
                      3XX-RR        3YY-RR        3ZZ-RR
 --------------------------------------------------------
     1   Atom        0.018419     -0.007494     -0.010924
     2   Atom       -0.003631      0.006630     -0.002999
     3   Atom        0.000820     -0.007893      0.007073
     4   Atom        0.479412     -0.356840     -0.122572
     5   Atom        0.002085     -0.026386      0.024301
     6   Atom       -0.006491      0.041308     -0.034818
     7   Atom        0.000050      0.006440     -0.006489
     8   Atom       -0.002189      0.007680     -0.005491
     9   Atom        0.000544      0.002198     -0.002742
    10   Atom       -0.000221      0.003955     -0.003734
    11   Atom        0.291636     -0.155902     -0.135734
    12   Atom        0.803448     -0.797181     -0.006267
    13   Atom        0.183146     -0.120363     -0.062783
    14   Atom        0.047298     -0.020458     -0.026840
    15   Atom        0.002030     -0.001267     -0.000763
    16   Atom        0.002004     -0.001692     -0.000311
    17   Atom        0.008848     -0.003049     -0.005799
 --------------------------------------------------------
                        XY            XZ            YZ
 --------------------------------------------------------
     1   Atom        0.018576      0.004889      0.005395
     2   Atom        0.005665      0.001626      0.007890
     3   Atom        0.001529      0.008715      0.002256
     4   Atom        0.104621     -0.458781     -0.057792
     5   Atom       -0.011180      0.006628     -0.036968
     6   Atom       -0.015147     -0.021411      0.005910
     7   Atom       -0.005457      0.001512     -0.000775
     8   Atom       -0.003125     -0.000540     -0.001543
     9   Atom       -0.004207      0.001038     -0.001875
    10   Atom       -0.005668     -0.001813      0.002751
    11   Atom        0.076851     -0.227531     -0.014377
    12   Atom        0.418090     -1.224505     -0.302424
    13   Atom        0.028950     -0.134072     -0.014613
    14   Atom        0.022078     -0.009329     -0.003349
    15   Atom        0.006438     -0.003243     -0.003853
    16   Atom        0.003568      0.002330      0.002996
    17   Atom       -0.002779     -0.000180      0.001491
 --------------------------------------------------------


 ---------------------------------------------------------------------------------
              Anisotropic Spin Dipole Couplings in Principal Axis System
 ---------------------------------------------------------------------------------

       Atom             a.u.   MegaHertz   Gauss  10(-4) cm-1        Axes

              Baa    -0.0182    -2.442    -0.871    -0.815 -0.3798  0.8467 -0.3726
     1 C(13)  Bbb    -0.0111    -1.486    -0.530    -0.496 -0.3152  0.2603  0.9126
              Bcc     0.0293     3.928     1.402     1.310  0.8697  0.4640  0.1681
 
              Baa    -0.0081    -4.320    -1.541    -1.441  0.4386 -0.5497  0.7110
     2 H(1)   Bbb    -0.0049    -2.640    -0.942    -0.880  0.8372 -0.0378 -0.5456
              Bcc     0.0130     6.959     2.483     2.321  0.3268  0.8345  0.4436
 
              Baa    -0.0082    -4.397    -1.569    -1.467 -0.0592  0.9919 -0.1125
     3 H(1)   Bbb    -0.0053    -2.834    -1.011    -0.945  0.8191 -0.0162 -0.5734
              Bcc     0.0136     7.231     2.580     2.412  0.5706  0.1260  0.8115
 
              Baa    -0.3712   -49.816   -17.776   -16.617  0.3044  0.6357  0.7094
     4 C(13)  Bbb    -0.3689   -49.505   -17.664   -16.513 -0.3771  0.7643 -0.5231
              Bcc     0.7401    99.320    35.440    33.130  0.8747  0.1083 -0.4724
 
              Baa    -0.0468   -24.990    -8.917    -8.336  0.1415  0.8837  0.4461
     5 H(1)   Bbb     0.0003     0.143     0.051     0.048  0.9594 -0.0113 -0.2820
              Bcc     0.0466    24.846     8.866     8.288  0.2442 -0.4678  0.8494
 
              Baa    -0.0464   -24.742    -8.829    -8.253  0.4799  0.0238  0.8770
     6 H(1)   Bbb    -0.0011    -0.593    -0.212    -0.198  0.8161  0.3550 -0.4561
              Bcc     0.0475    25.335     9.040     8.451 -0.3221  0.9346  0.1509
 
              Baa    -0.0068    -0.918    -0.328    -0.306 -0.2485 -0.0457  0.9676
     7 C(13)  Bbb    -0.0029    -0.383    -0.137    -0.128  0.8290  0.5066  0.2368
              Bcc     0.0097     1.301     0.464     0.434 -0.5010  0.8610 -0.0880
 
              Baa    -0.0059    -3.164    -1.129    -1.055  0.2794  0.1712  0.9448
     8 H(1)   Bbb    -0.0028    -1.484    -0.530    -0.495  0.9214  0.2289 -0.3140
              Bcc     0.0087     4.648     1.659     1.550 -0.2701  0.9583 -0.0938
 
              Baa    -0.0035    -1.863    -0.665    -0.621  0.3061  0.4945  0.8135
     9 H(1)   Bbb    -0.0027    -1.423    -0.508    -0.475  0.7305  0.4259 -0.5338
              Bcc     0.0062     3.286     1.172     1.096 -0.6104  0.7577 -0.2308
 
              Baa    -0.0046    -2.464    -0.879    -0.822 -0.0085 -0.3106  0.9505
    10 H(1)   Bbb    -0.0042    -2.219    -0.792    -0.740  0.8340  0.5223  0.1781
              Bcc     0.0088     4.682     1.671     1.562 -0.5517  0.7942  0.2547
 
              Baa    -0.2383    17.243     6.153     5.752  0.4119 -0.2304  0.8816
    11 O(17)  Bbb    -0.1623    11.741     4.189     3.916 -0.0299  0.9636  0.2658
              Bcc     0.4005   -28.983   -10.342    -9.668  0.9107  0.1359 -0.3900
 
              Baa    -0.9001    65.127    23.239    21.724 -0.1424  0.9803  0.1366
    12 O(17)  Bbb    -0.8911    64.479    23.008    21.508  0.5898 -0.0268  0.8071
              Bcc     1.7912  -129.607   -46.247   -43.232  0.7949  0.1955 -0.5744
 
              Baa    -0.1244   -66.352   -23.676   -22.133  0.1533  0.8330  0.5315
    13 H(1)   Bbb    -0.1206   -64.355   -22.963   -21.466  0.3813 -0.5461  0.7459
              Bcc     0.2450   130.707    46.639    43.599  0.9117  0.0883 -0.4014
 
              Baa    -0.0283    -3.794    -1.354    -1.266 -0.0088  0.4147  0.9099
    14 C(13)  Bbb    -0.0268    -3.593    -1.282    -1.199 -0.3077  0.8647 -0.3971
              Bcc     0.0551     7.388     2.636     2.464  0.9514  0.2835 -0.1200
 
              Baa    -0.0065    -3.491    -1.246    -1.164 -0.5174  0.8171  0.2543
    15 H(1)   Bbb    -0.0029    -1.538    -0.549    -0.513  0.5035  0.0504  0.8625
              Bcc     0.0094     5.029     1.794     1.677  0.6919  0.5743 -0.4375
 
              Baa    -0.0045    -2.412    -0.861    -0.805 -0.3090  0.8473 -0.4319
    16 H(1)   Bbb    -0.0016    -0.880    -0.314    -0.294 -0.6342  0.1548  0.7575
              Bcc     0.0062     3.292     1.175     1.098  0.7087  0.5080  0.4895
 
              Baa    -0.0065    -3.478    -1.241    -1.160 -0.0691 -0.4402  0.8953
    17 H(1)   Bbb    -0.0030    -1.581    -0.564    -0.527  0.2116  0.8705  0.4443
              Bcc     0.0095     5.059     1.805     1.687  0.9749 -0.2201 -0.0330
 

 ---------------------------------------------------------------------------------

 Calling FoFJK, ICntrl=  10100127 FMM=F ISym2X=0 I1Cent= 0 IOpClX= 1 NMat=1 NMatS=1 NMatT=0.
 -------------------------------------------------------------------
 Center     Atomic                   Forces (Hartrees/Bohr)
 Number     Number              X              Y              Z
 -------------------------------------------------------------------
      1        6          -0.000000957   -0.000000338    0.000000036
      2        1          -0.000000317    0.000000451    0.000000047
      3        1           0.000000292    0.000000185    0.000000243
      4        6           0.000002261    0.000000788   -0.000001093
      5        1           0.000000756   -0.000001267    0.000000148
      6        1          -0.000000587   -0.000000402    0.000000425
      7        6           0.000000427   -0.000002392    0.000000301
      8        1          -0.000001188    0.000000206    0.000000167
      9        1          -0.000000075   -0.000000508   -0.000000074
     10        1          -0.000000173    0.000000094    0.000000089
     11        8           0.000009204   -0.000004458    0.000009107
     12        8          -0.000006203    0.000007536   -0.000010908
     13        1          -0.000003364   -0.000000402    0.000002205
     14        6           0.000000000   -0.000000250   -0.000000462
     15        1          -0.000000011    0.000000109   -0.000000163
     16        1          -0.000000132    0.000000265   -0.000000139
     17        1           0.000000066    0.000000384    0.000000072
 -------------------------------------------------------------------
 Cartesian Forces:  Max     0.000010908 RMS     0.000002930
 FormGI is forming the generalized inverse of G from B-inverse, IUseBI=4.

 GradGradGradGradGradGradGradGradGradGradGradGradGradGradGradGradGradGrad
 Berny optimization.
 Internal  Forces:  Max     0.000014405 RMS     0.000002094
 Search for a saddle point.
 Step number   1 out of a maximum of  102 on scan point     1 out of    37
 All quantities printed in internal units (Hartrees-Bohrs-Radians)
 Swapping is turned off.
 Second derivative matrix not updated -- analytic derivatives used.
 ITU=  0
     Eigenvalues ---   -0.07464   0.00157   0.00251   0.00647   0.01542
     Eigenvalues ---    0.02091   0.02735   0.03182   0.03414   0.03490
     Eigenvalues ---    0.03884   0.04590   0.04609   0.06561   0.07085
     Eigenvalues ---    0.08499   0.08544   0.09726   0.11317   0.12137
     Eigenvalues ---    0.12957   0.13292   0.13527   0.15122   0.16087
     Eigenvalues ---    0.16639   0.17880   0.18463   0.19119   0.25563
     Eigenvalues ---    0.28196   0.30816   0.31934   0.33197   0.33465
     Eigenvalues ---    0.33843   0.33863   0.34273   0.34441   0.34675
     Eigenvalues ---    0.34740   0.35026   0.35542   0.405661000.00000
     Eigenvalues --- 1000.000001000.000001000.000001000.000001000.00000
     Eigenvalues --- 1000.000001000.000001000.000001000.000001000.00000
     Eigenvalues --- 1000.000001000.000001000.000001000.000001000.00000
     Eigenvalues --- 1000.000001000.000001000.000001000.000001000.00000
     Eigenvalues --- 1000.000001000.00000
 Eigenvectors required to have negative eigenvalues:
                          R7        R13       R12       A20       D1
   1                    0.68674  -0.66439   0.15368  -0.09347  -0.08160
                          D5        D7        D8        D4        A11
   1                    0.07647  -0.07552   0.06973  -0.06877  -0.06850
 RFO step:  Lambda0=4.717615187D-12 Lambda= 0.00000000D+00.
 Linear search not attempted -- option 19 set.
 Iteration  1 RMS(Cart)=  0.00020212 RMS(Int)=  0.00000001
 Iteration  2 RMS(Cart)=  0.00000002 RMS(Int)=  0.00000000
 Iteration  1 RMS(Cart)=  0.00000000 RMS(Int)=  0.00000000
 Variable       Old X    -DE/DX   Delta X   Delta X   Delta X     New X
                                 (Linear)    (Quad)   (Total)
    R1        2.06100   0.00000   0.00000   0.00000   0.00000   2.06100
    R2        2.06115   0.00000   0.00000   0.00000   0.00000   2.06115
    R3        2.83786  -0.00000   0.00000  -0.00000  -0.00000   2.83786
    R4        2.90041   0.00000   0.00000   0.00000   0.00000   2.90041
    R5        2.05440  -0.00000   0.00000  -0.00000  -0.00000   2.05440
    R6        2.05298   0.00000   0.00000   0.00000   0.00000   2.05298
    R7        2.57397   0.00000   0.00000  -0.00001  -0.00001   2.57396
    R8        2.06282  -0.00000   0.00000  -0.00000  -0.00000   2.06281
    R9        2.05624  -0.00000   0.00000  -0.00000  -0.00000   2.05624
   R10        2.05740   0.00000   0.00000   0.00000   0.00000   2.05740
   R11        2.68221  -0.00000   0.00000  -0.00000  -0.00000   2.68221
   R12        2.66284  -0.00001   0.00000  -0.00006  -0.00006   2.66278
   R13        2.19643  -0.00000   0.00000   0.00000   0.00000   2.19643
   R14        2.05868   0.00000   0.00000   0.00000   0.00000   2.05868
   R15        2.05878  -0.00000   0.00000   0.00000   0.00000   2.05878
   R16        2.05849  -0.00000   0.00000  -0.00000  -0.00000   2.05848
    A1        1.86213  -0.00000   0.00000   0.00000   0.00000   1.86213
    A2        1.91762   0.00000   0.00000  -0.00000  -0.00000   1.91762
    A3        1.90753   0.00000   0.00000  -0.00000  -0.00000   1.90752
    A4        1.91529   0.00000   0.00000   0.00000   0.00000   1.91529
    A5        1.90596   0.00000   0.00000   0.00000   0.00000   1.90596
    A6        1.95304  -0.00000   0.00000  -0.00000  -0.00000   1.95304
    A7        2.02949   0.00000   0.00000   0.00000   0.00000   2.02949
    A8        2.02364   0.00000   0.00000   0.00000   0.00000   2.02364
    A9        1.87814  -0.00000   0.00000  -0.00000  -0.00000   1.87813
   A10        1.96656  -0.00000   0.00000  -0.00000  -0.00000   1.96656
   A11        1.74937   0.00000   0.00000   0.00003   0.00003   1.74940
   A12        1.77040  -0.00000   0.00000  -0.00002  -0.00002   1.77038
   A13        1.91623  -0.00000   0.00000   0.00000   0.00000   1.91623
   A14        1.91604  -0.00000   0.00000  -0.00000  -0.00000   1.91604
   A15        1.93603   0.00000   0.00000   0.00001   0.00001   1.93604
   A16        1.92436  -0.00000   0.00000  -0.00000  -0.00000   1.92436
   A17        1.83748  -0.00000   0.00000  -0.00000  -0.00000   1.83748
   A18        1.93250  -0.00000   0.00000  -0.00000  -0.00000   1.93250
   A19        1.88015  -0.00000   0.00000   0.00001   0.00001   1.88016
   A20        1.82198   0.00000   0.00000   0.00003   0.00003   1.82201
   A21        1.93694   0.00000   0.00000  -0.00000  -0.00000   1.93694
   A22        1.93286  -0.00000   0.00000  -0.00000  -0.00000   1.93286
   A23        1.93641   0.00000   0.00000   0.00000   0.00000   1.93642
   A24        1.88669   0.00000   0.00000  -0.00000  -0.00000   1.88669
   A25        1.88267  -0.00000   0.00000   0.00000   0.00000   1.88268
   A26        1.88632  -0.00000   0.00000  -0.00000  -0.00000   1.88632
   A27        3.10581   0.00000   0.00000   0.00009   0.00009   3.10590
   A28        3.16344  -0.00000   0.00000   0.00001   0.00001   3.16345
    D1        0.91249   0.00000   0.00000   0.00007   0.00007   0.91255
    D2       -2.99836   0.00000   0.00000   0.00006   0.00006  -2.99830
    D3       -1.03150  -0.00000   0.00000   0.00003   0.00003  -1.03147
    D4        2.95471   0.00000   0.00000   0.00007   0.00007   2.95478
    D5       -0.95613   0.00000   0.00000   0.00007   0.00007  -0.95607
    D6        1.01073  -0.00000   0.00000   0.00004   0.00004   1.01076
    D7       -1.20980   0.00000   0.00000   0.00007   0.00007  -1.20972
    D8        1.16254   0.00000   0.00000   0.00007   0.00007   1.16261
    D9        3.12940  -0.00000   0.00000   0.00004   0.00004   3.12944
   D10       -1.08186   0.00000   0.00000   0.00001   0.00001  -1.08186
   D11        1.01370   0.00000   0.00000   0.00001   0.00001   1.01371
   D12        3.10845   0.00000   0.00000   0.00001   0.00001   3.10846
   D13       -3.11291   0.00000   0.00000   0.00001   0.00001  -3.11291
   D14       -1.01735  -0.00000   0.00000   0.00001   0.00001  -1.01735
   D15        1.07740  -0.00000   0.00000   0.00001   0.00001   1.07741
   D16        1.04622   0.00000   0.00000   0.00001   0.00001   1.04622
   D17       -3.14140  -0.00000   0.00000   0.00000   0.00000  -3.14140
   D18       -1.04665  -0.00000   0.00000   0.00000   0.00000  -1.04665
   D19        2.10838  -0.00000   0.00000   0.00000   0.00000   2.10838
   D20        1.15060   0.00000   0.00000  -0.00001  -0.00001   1.15059
   D21       -3.06083   0.00000   0.00000  -0.00000  -0.00000  -3.06084
   D22       -0.98124  -0.00000   0.00000  -0.00001  -0.00001  -0.98125
   D23       -1.59874  -0.00001   0.00000  -0.00023  -0.00023  -1.59898
         Item               Value     Threshold  Converged?
 Maximum Force            0.000014     0.000450     YES
 RMS     Force            0.000002     0.000300     YES
 Maximum Displacement     0.000665     0.001800     YES
 RMS     Displacement     0.000202     0.001200     YES
 Predicted change in Energy=-1.376019D-09
 Optimization completed.
    -- Stationary point found.
                           ----------------------------
                           !   Optimized Parameters   !
                           ! (Angstroms and Degrees)  !
 --------------------------                            --------------------------
 ! Name  Definition              Value          Derivative Info.                !
 --------------------------------------------------------------------------------
 ! R1    R(1,2)                  1.0906         -DE/DX =    0.0                 !
 ! R2    R(1,3)                  1.0907         -DE/DX =    0.0                 !
 ! R3    R(1,4)                  1.5017         -DE/DX =    0.0                 !
 ! R4    R(1,14)                 1.5348         -DE/DX =    0.0                 !
 ! R5    R(4,5)                  1.0871         -DE/DX =    0.0                 !
 ! R6    R(4,6)                  1.0864         -DE/DX =    0.0                 !
 ! R7    R(4,13)                 1.3621         -DE/DX =    0.0                 !
 ! R8    R(7,8)                  1.0916         -DE/DX =    0.0                 !
 ! R9    R(7,9)                  1.0881         -DE/DX =    0.0                 !
 ! R10   R(7,10)                 1.0887         -DE/DX =    0.0                 !
 ! R11   R(7,11)                 1.4194         -DE/DX =    0.0                 !
 ! R12   R(11,12)                1.4091         -DE/DX =    0.0                 !
 ! R13   R(12,13)                1.1623         -DE/DX =    0.0                 !
 ! R14   R(14,15)                1.0894         -DE/DX =    0.0                 !
 ! R15   R(14,16)                1.0895         -DE/DX =    0.0                 !
 ! R16   R(14,17)                1.0893         -DE/DX =    0.0                 !
 ! A1    A(2,1,3)              106.6921         -DE/DX =    0.0                 !
 ! A2    A(2,1,4)              109.8716         -DE/DX =    0.0                 !
 ! A3    A(2,1,14)             109.2932         -DE/DX =    0.0                 !
 ! A4    A(3,1,4)              109.7381         -DE/DX =    0.0                 !
 ! A5    A(3,1,14)             109.2032         -DE/DX =    0.0                 !
 ! A6    A(4,1,14)             111.9012         -DE/DX =    0.0                 !
 ! A7    A(1,4,5)              116.2812         -DE/DX =    0.0                 !
 ! A8    A(1,4,6)              115.9462         -DE/DX =    0.0                 !
 ! A9    A(1,4,13)             107.6094         -DE/DX =    0.0                 !
 ! A10   A(5,4,6)              112.6756         -DE/DX =    0.0                 !
 ! A11   A(5,4,13)             100.2318         -DE/DX =    0.0                 !
 ! A12   A(6,4,13)             101.4367         -DE/DX =    0.0                 !
 ! A13   A(8,7,9)              109.7918         -DE/DX =    0.0                 !
 ! A14   A(8,7,10)             109.7813         -DE/DX =    0.0                 !
 ! A15   A(8,7,11)             110.9263         -DE/DX =    0.0                 !
 ! A16   A(9,7,10)             110.2577         -DE/DX =    0.0                 !
 ! A17   A(9,7,11)             105.2798         -DE/DX =    0.0                 !
 ! A18   A(10,7,11)            110.7241         -DE/DX =    0.0                 !
 ! A19   A(7,11,12)            107.7249         -DE/DX =    0.0                 !
 ! A20   A(11,12,13)           104.3916         -DE/DX =    0.0                 !
 ! A21   A(1,14,15)            110.9783         -DE/DX =    0.0                 !
 ! A22   A(1,14,16)            110.7445         -DE/DX =    0.0                 !
 ! A23   A(1,14,17)            110.9484         -DE/DX =    0.0                 !
 ! A24   A(15,14,16)           108.0993         -DE/DX =    0.0                 !
 ! A25   A(15,14,17)           107.8693         -DE/DX =    0.0                 !
 ! A26   A(16,14,17)           108.0781         -DE/DX =    0.0                 !
 ! A27   L(4,13,12,8,-1)       177.9495         -DE/DX =    0.0                 !
 ! A28   L(4,13,12,8,-2)       181.2516         -DE/DX =    0.0                 !
 ! D1    D(2,1,4,5)             52.2815         -DE/DX =    0.0                 !
 ! D2    D(2,1,4,6)           -171.7934         -DE/DX =    0.0                 !
 ! D3    D(2,1,4,13)           -59.1006         -DE/DX =    0.0                 !
 ! D4    D(3,1,4,5)            169.2925         -DE/DX =    0.0                 !
 ! D5    D(3,1,4,6)            -54.7824         -DE/DX =    0.0                 !
 ! D6    D(3,1,4,13)            57.9104         -DE/DX =    0.0                 !
 ! D7    D(14,1,4,5)           -69.3162         -DE/DX =    0.0                 !
 ! D8    D(14,1,4,6)            66.6089         -DE/DX =    0.0                 !
 ! D9    D(14,1,4,13)          179.3016         -DE/DX =    0.0                 !
 ! D10   D(2,1,14,15)          -61.9862         -DE/DX =    0.0                 !
 ! D11   D(2,1,14,16)           58.0807         -DE/DX =    0.0                 !
 ! D12   D(2,1,14,17)          178.1013         -DE/DX =    0.0                 !
 ! D13   D(3,1,14,15)         -178.3568         -DE/DX =    0.0                 !
 ! D14   D(3,1,14,16)          -58.2899         -DE/DX =    0.0                 !
 ! D15   D(3,1,14,17)           61.7307         -DE/DX =    0.0                 !
 ! D16   D(4,1,14,15)           59.9439         -DE/DX =    0.0                 !
 ! D17   D(4,1,14,16)         -179.9892         -DE/DX =    0.0                 !
 ! D18   D(4,1,14,17)          -59.9687         -DE/DX =    0.0                 !
 ! D19   D(1,4,12,11)          120.8014         -DE/DX =    0.0                 !
 ! D20   D(8,7,11,12)           65.9246         -DE/DX =    0.0                 !
 ! D21   D(9,7,11,12)         -175.3727         -DE/DX =    0.0                 !
 ! D22   D(10,7,11,12)         -56.221          -DE/DX =    0.0                 !
 ! D23   D(7,11,12,13)         -91.6012         -DE/DX =    0.0                 !
 --------------------------------------------------------------------------------
 Iteration  1 RMS(Cart)=  0.10587193 RMS(Int)=  0.00362026
 Iteration  2 RMS(Cart)=  0.00614924 RMS(Int)=  0.00000907
 Iteration  3 RMS(Cart)=  0.00002676 RMS(Int)=  0.00000000
 Iteration  4 RMS(Cart)=  0.00000000 RMS(Int)=  0.00000000
 Iteration  1 RMS(Cart)=  0.00000000 RMS(Int)=  0.00000000
 GradGradGradGradGradGradGradGradGradGradGradGradGradGradGradGradGradGrad

                          Input orientation:                          
 ---------------------------------------------------------------------
 Center     Atomic      Atomic             Coordinates (Angstroms)
 Number     Number       Type             X           Y           Z
 ---------------------------------------------------------------------
      1          6           0        1.811018    0.144583    0.480014
      2          1           0        1.377035    1.105371    0.759346
      3          1           0        1.897036   -0.438927    1.397494
      4          6           0        0.905981   -0.562329   -0.487654
      5          1           0        0.600279    0.004975   -1.363202
      6          1           0        1.172902   -1.588200   -0.725529
      7          6           0       -2.440657    1.026731   -0.078162
      8          1           0       -1.523806    1.578430   -0.294010
      9          1           0       -3.222851    1.325810   -0.772940
     10          1           0       -2.753424    1.218519    0.946888
     11          8           0       -2.258665   -0.363976   -0.295898
     12          8           0       -1.328540   -0.828970    0.654978
     13          1           0       -0.299263   -0.731735    0.123862
     14          6           0        3.210893    0.371873   -0.106832
     15          1           0        3.161175    0.977828   -1.010798
     16          1           0        3.851103    0.885090    0.609869
     17          1           0        3.683515   -0.575059   -0.364764
 ---------------------------------------------------------------------
                    Distance matrix (angstroms):
                    1          2          3          4          5
     1  C    0.000000
     2  H    1.090634   0.000000
     3  H    1.090712   1.749998   0.000000
     4  C    1.501731   2.134976   2.133354   0.000000
     5  H    2.209712   2.513848   3.082218   1.087140   0.000000
     6  H    2.205235   3.082507   2.520401   1.086390   1.809070
     7  C    4.377954   3.909268   4.810540   3.727302   3.455807
     8  H    3.711614   3.122214   4.316605   3.244104   2.851432
     9  H    5.320247   4.853395   5.834237   4.549034   4.087705
    10  H    4.712265   4.136262   4.957515   4.315156   4.249297
    11  O    4.174085   4.060890   4.488100   3.176648   3.073893
    12  O    3.291692   3.327567   3.332837   2.523843   2.913564
    13  H    2.312588   2.566860   2.555700   1.362080   1.887665
    14  C    1.534829   2.156692   2.155600   2.516025   2.920340
    15  H    2.177095   2.516512   3.066775   2.780587   2.762032
    16  H    2.174204   2.488349   2.488323   3.460249   3.903264
    17  H    2.176645   3.067136   2.513084   2.780281   3.292365
                    6          7          8          9         10
     6  H    0.000000
     7  C    4.507190   0.000000
     8  H    4.181625   1.091594   0.000000
     9  H    5.274120   1.088114   1.783240   0.000000
    10  H    5.107904   1.088730   1.783627   1.785968   0.000000
    11  O    3.668645   1.419365   2.076768   2.003148   2.072099
    12  O    2.956254   2.284278   2.595049   3.204753   2.511517
    13  H    1.903225   2.778234   2.647827   3.685799   3.240952
    14  C    2.894492   5.689436   4.889600   6.538101   6.115572
    15  H    3.258697   5.679148   4.777400   6.397926   6.234818
    16  H    3.882423   6.330852   5.494303   7.221303   6.621520
    17  H    2.731261   6.336668   5.635487   7.174803   6.809665
                   11         12         13         14         15
    11  O    0.000000
    12  O    1.409084   0.000000
    13  H    2.037327   1.162303   0.000000
    14  C    5.522073   4.756977   3.686783   0.000000
    15  H    5.629048   5.118287   4.023020   1.089407   0.000000
    16  H    6.301575   5.456073   4.480610   1.089458   1.763848
    17  H    5.946327   5.121039   4.015698   1.089303   1.761152
                   16         17
    16  H    0.000000
    17  H    1.763528   0.000000
 Symmetry turned off by external request.
 Stoichiometry    C4H11O2(2)
 Framework group  C1[X(C4H11O2)]
 Deg. of freedom    45
 Full point group                 C1      NOp   1
 Rotational constants (GHZ):           7.6873737           1.1439898           1.0882834
 Standard basis: CC-pVTZ (5D, 7F)
   334 basis functions,   499 primitive gaussians,   375 cartesian basis functions
    26 alpha electrons       25 beta electrons
       nuclear repulsion energy       245.1148893002 Hartrees.
 NAtoms=   17 NActive=   17 NUniq=   17 SFac= 1.00D+00 NAtFMM=   60 NAOKFM=F Big=F
 Integral buffers will be    131072 words long.
 Raffenetti 2 integral format.
 Two-electron integral symmetry is turned off.
 Nuclear repulsion after empirical dispersion term =      245.1072814903 Hartrees.
 One-electron integrals computed using PRISM.
 NBasis=   334 RedAO= T EigKep=  7.84D-04  NBF=   334
 NBsUse=   334 1.00D-06 EigRej= -1.00D+00 NBFU=   334
 Initial guess from the checkpoint file:  "/localscratch/350155/Gau-36571.chk"
 B after Tr=     0.006280    0.003842    0.037907
         Rot=    0.999888    0.014736   -0.002342   -0.000738 Ang=   1.71 deg.
 Initial guess <Sx>= 0.0000 <Sy>= 0.0000 <Sz>= 0.5000 <S**2>= 0.7683 S= 0.5091
 ExpMin= 1.03D-01 ExpMax= 1.53D+04 ExpMxC= 5.22D+02 IAcc=3 IRadAn=         5 AccDes= 0.00D+00
 Harris functional with IExCor=  419 and IRadAn=       5 diagonalized for initial guess.
 HarFok:  IExCor=  419 AccDes= 0.00D+00 IRadAn=         5 IDoV= 1 UseB2=F ITyADJ=14
 ICtDFT=  3500011 ScaDFX=  1.000000  1.000000  1.000000  1.000000
 FoFCou: FMM=F IPFlag=           0 FMFlag=      100000 FMFlg1=           0
         NFxFlg=           0 DoJE=T BraDBF=F KetDBF=T FulRan=T
         wScrn=  0.000000 ICntrl=       500 IOpCl=  0 I1Cent=   200000004 NGrid=           0
         NMat0=    1 NMatS0=      1 NMatT0=    0 NMatD0=    1 NMtDS0=    0 NMtDT0=    0
 Symmetry not used in FoFCou.
 Requested convergence on RMS density matrix=1.00D-08 within 500 cycles.
 Requested convergence on MAX density matrix=1.00D-06.
 Requested convergence on             energy=1.00D-06.
 No special actions if energy rises.
 Integral accuracy reduced to 1.0D-05 until final iterations.
 Initial convergence to 1.0D-05 achieved.  Increase integral accuracy.
 SCF Done:  E(UB2PLYPD3) =  -308.790363830     A.U. after   14 cycles
            NFock= 14  Conv=0.52D-08     -V/T= 2.0044
 <Sx>= 0.0000 <Sy>= 0.0000 <Sz>= 0.5000 <S**2>= 0.7683 S= 0.5091
 <L.S>=  0.00000000000    
 Annihilation of the first spin contaminant:
 S**2 before annihilation     0.7683,   after     0.7501
 DoSCS=T DFT=T ScalE2(SS,OS)=  0.270000  0.270000
 ExpMin= 1.03D-01 ExpMax= 1.53D+04 ExpMxC= 5.22D+02 IAcc=3 IRadAn=         5 AccDes= 0.00D+00
[...]
    15  H   -0.000071   0.407446   0.594445  -0.030108  -0.033241
    16  H   -0.000066   0.407712  -0.030108   0.581250  -0.029547
    17  H   -0.000133   0.409179  -0.033241  -0.029547   0.590558
          Atomic-Atomic Spin Densities.
               1          2          3          4          5          6
     1  C   -0.029539   0.001418   0.001860  -0.030045  -0.000466   0.000370
     2  H    0.001418   0.005943   0.001101  -0.003167   0.000777   0.000086
     3  H    0.001860   0.001101   0.006988  -0.003993   0.000006   0.000978
     4  C   -0.030045  -0.003167  -0.003993   0.719195   0.006620   0.003765
     5  H   -0.000466   0.000777   0.000006   0.006620  -0.028561   0.002590
     6  H    0.000370   0.000086   0.000978   0.003765   0.002590  -0.023640
     7  C   -0.000137  -0.000071  -0.000007   0.001348  -0.000372  -0.000041
     8  H    0.000727   0.000610   0.000086  -0.004746   0.000887   0.000129
     9  H   -0.000011  -0.000008  -0.000000   0.000084  -0.000011  -0.000002
    10  H   -0.000179  -0.000111  -0.000030   0.001257  -0.000114  -0.000023
    11  O   -0.000451  -0.000130  -0.000040   0.010940  -0.001216  -0.000342
    12  O    0.004808   0.000801   0.000900  -0.088237   0.002600   0.002634
    13  H   -0.000619  -0.000265  -0.000517   0.058272   0.003704   0.001153
    14  C    0.018084  -0.003397  -0.003187  -0.016578  -0.000662  -0.001470
    15  H   -0.000058   0.000170   0.000091   0.001116   0.000129   0.000135
    16  H   -0.003327   0.000838   0.000926   0.001823   0.000118   0.000162
    17  H    0.000365   0.000034   0.000070   0.000375   0.000037   0.000049
               7          8          9         10         11         12
     1  C   -0.000137   0.000727  -0.000011  -0.000179  -0.000451   0.004808
     2  H   -0.000071   0.000610  -0.000008  -0.000111  -0.000130   0.000801
     3  H   -0.000007   0.000086  -0.000000  -0.000030  -0.000040   0.000900
     4  C    0.001348  -0.004746   0.000084   0.001257   0.010940  -0.088237
     5  H   -0.000372   0.000887  -0.000011  -0.000114  -0.001216   0.002600
     6  H   -0.000041   0.000129  -0.000002  -0.000023  -0.000342   0.002634
     7  C   -0.004409   0.002454   0.000428  -0.002472   0.001476  -0.003012
     8  H    0.002454   0.003970  -0.000496  -0.001850  -0.001175   0.004183
     9  H    0.000428  -0.000496  -0.001905   0.000911   0.000086  -0.000184
    10  H   -0.002472  -0.001850   0.000911   0.004485  -0.000732  -0.000400
    11  O    0.001476  -0.001175   0.000086  -0.000732   0.045362  -0.039761
    12  O   -0.003012   0.004183  -0.000184  -0.000400  -0.039761   0.577890
    13  H    0.001031  -0.003306   0.000101   0.001386   0.009559  -0.049663
    14  C    0.000022  -0.000149  -0.000000   0.000011   0.000024  -0.000370
    15  H   -0.000002   0.000017  -0.000000  -0.000001  -0.000003   0.000019
    16  H   -0.000001   0.000017  -0.000000  -0.000001  -0.000001   0.000019
    17  H   -0.000000   0.000003  -0.000000  -0.000000  -0.000001   0.000009
              13         14         15         16         17
     1  C   -0.000619   0.018084  -0.000058  -0.003327   0.000365
     2  H   -0.000265  -0.003397   0.000170   0.000838   0.000034
     3  H   -0.000517  -0.003187   0.000091   0.000926   0.000070
     4  C    0.058272  -0.016578   0.001116   0.001823   0.000375
     5  H    0.003704  -0.000662   0.000129   0.000118   0.000037
     6  H    0.001153  -0.001470   0.000135   0.000162   0.000049
     7  C    0.001031   0.000022  -0.000002  -0.000001  -0.000000
     8  H   -0.003306  -0.000149   0.000017   0.000017   0.000003
     9  H    0.000101  -0.000000  -0.000000  -0.000000  -0.000000
    10  H    0.001386   0.000011  -0.000001  -0.000001  -0.000000
    11  O    0.009559   0.000024  -0.000003  -0.000001  -0.000001
    12  O   -0.049663  -0.000370   0.000019   0.000019   0.000009
    13  H   -0.097175   0.000108  -0.000048  -0.000035  -0.000002
    14  C    0.000108   0.042320  -0.001088  -0.003331  -0.000218
    15  H   -0.000048  -0.001088  -0.002313   0.000860   0.000499
    16  H   -0.000035  -0.003331   0.000860   0.011244   0.000438
    17  H   -0.000002  -0.000218   0.000499   0.000438  -0.002576
 Mulliken charges and spin densities:
               1          2
     1  C   -0.158468  -0.037199
     2  H    0.101231   0.004629
     3  H    0.105618   0.005232
     4  C   -0.292588   0.658028
     5  H    0.120497  -0.013934
     6  H    0.123005  -0.013466
     7  C   -0.051899  -0.003766
     8  H    0.062568   0.001361
     9  H    0.097684  -0.001006
    10  H    0.083430   0.002137
    11  O   -0.188635   0.023593
    12  O   -0.224217   0.412235
    13  H    0.218583  -0.076316
    14  C   -0.294642   0.030118
    15  H    0.095218  -0.000476
    16  H    0.105320   0.009749
    17  H    0.097296  -0.000918
 Sum of Mulliken charges =  -0.00000   1.00000
 Mulliken charges and spin densities with hydrogens summed into heavy atoms:
               1          2
     1  C    0.048380  -0.027339
     4  C   -0.049087   0.630628
     7  C    0.191782  -0.001275
    11  O   -0.188635   0.023593
    12  O   -0.005634   0.335919
    14  C    0.003192   0.038473
 Electronic spatial extent (au):  <R**2>=           1130.5847
 Charge=              0.0000 electrons
 Dipole moment (field-independent basis, Debye):
    X=              1.7465    Y=             -1.7384    Z=              1.2011  Tot=              2.7414
 Quadrupole moment (field-independent basis, Debye-Ang):
   XX=            -38.6484   YY=            -42.0418   ZZ=            -39.2895
   XY=              5.1543   XZ=             -3.7507   YZ=              0.4394
 Traceless Quadrupole moment (field-independent basis, Debye-Ang):
   XX=              1.3448   YY=             -2.0486   ZZ=              0.7037
   XY=              5.1543   XZ=             -3.7507   YZ=              0.4394
 Octapole moment (field-independent basis, Debye-Ang**2):
  XXX=            -22.3955  YYY=            -51.3850  ZZZ=             15.5870  XYY=              3.3180
  XXY=            -24.2124  XXZ=              9.0641  XZZ=             -5.2232  YZZ=            -16.4311
  YYZ=              3.8191  XYZ=             -2.0177
 Hexadecapole moment (field-independent basis, Debye-Ang**3):
 XXXX=          -1102.9426 YYYY=           -227.6548 ZZZZ=           -140.6641 XXXY=             92.2053
 XXXZ=             45.3244 YYYX=             86.1483 YYYZ=             10.5797 ZZZX=             59.4569
 ZZZY=             14.4930 XXYY=           -233.1042 XXZZ=           -201.4775 YYZZ=            -63.0534
 XXYZ=              5.8391 YYXZ=             18.6428 ZZXY=             26.7469
 N-N= 2.457365363603D+02 E-N=-1.214181905037D+03  KE= 3.074477332274D+02
                          Isotropic Fermi Contact Couplings
        Atom                 a.u.       MegaHertz       Gauss      10(-4) cm-1
     1  C(13)             -0.01268     -14.24923      -5.08448      -4.75303
     2  H(1)               0.00223       9.95882       3.55356       3.32191
     3  H(1)               0.00325      14.54694       5.19071       4.85234
     4  C(13)              0.09452     106.25351      37.91390      35.44236
     5  H(1)              -0.00418     -18.67535      -6.66383      -6.22943
     6  H(1)              -0.00426     -19.05098      -6.79786      -6.35472
     7  C(13)             -0.00349      -3.92189      -1.39943      -1.30820
     8  H(1)               0.00216       9.66088       3.44724       3.22252
     9  H(1)              -0.00011      -0.50580      -0.18048      -0.16872
    10  H(1)               0.00050       2.24464       0.80094       0.74873
    11  O(17)              0.01404      -8.50829      -3.03597      -2.83806
    12  O(17)              0.04447     -26.95518      -9.61828      -8.99128
    13  H(1)              -0.02360    -105.50363     -37.64632     -35.19222
    14  C(13)              0.03921      44.08481      15.73056      14.70511
    15  H(1)              -0.00052      -2.31672      -0.82666      -0.77277
    16  H(1)               0.00359      16.05311       5.72815       5.35474
    17  H(1)              -0.00047      -2.10304      -0.75042      -0.70150
 --------------------------------------------------------
       Center         ----  Spin Dipole Couplings  ----
                      3XX-RR        3YY-RR        3ZZ-RR
 --------------------------------------------------------
     1   Atom        0.012697      0.003231     -0.015928
     2   Atom       -0.004788      0.012448     -0.007660
     3   Atom       -0.002446      0.000818      0.001627
     4   Atom        0.608081     -0.370691     -0.237390
     5   Atom        0.000821     -0.045535      0.044714
     6   Atom        0.003283      0.014522     -0.017805
     7   Atom        0.000061      0.000498     -0.000559
     8   Atom       -0.001629      0.001158      0.000471
     9   Atom        0.000614     -0.001973      0.001359
    10   Atom        0.001296      0.002080     -0.003376
    11   Atom        0.347408     -0.170244     -0.177164
    12   Atom        1.157441     -0.897301     -0.260140
    13   Atom        0.218231     -0.124303     -0.093928
    14   Atom        0.044177     -0.018791     -0.025386
    15   Atom        0.002024     -0.003236      0.001212
    16   Atom        0.000564      0.002937     -0.003501
    17   Atom        0.008774     -0.002993     -0.005781
 --------------------------------------------------------
                        XY            XZ            YZ
 --------------------------------------------------------
     1   Atom       -0.020762      0.002828      0.001982
     2   Atom       -0.002988      0.001198     -0.001236
     3   Atom       -0.004988     -0.004661      0.009408
     4   Atom        0.017785      0.358672      0.005865
     5   Atom       -0.001333     -0.004957      0.010833
     6   Atom        0.023858      0.001330     -0.036909
     7   Atom        0.003131     -0.005514     -0.005833
     8   Atom        0.002705     -0.002210     -0.006712
     9   Atom        0.002195     -0.003669     -0.002699
    10   Atom        0.005837     -0.002634     -0.002855
    11   Atom       -0.024206      0.171919     -0.033897
    12   Atom        0.029641      1.139871      0.020994
    13   Atom       -0.004296      0.095081     -0.001124
    14   Atom       -0.025597      0.011106     -0.004656
    15   Atom       -0.004759      0.006003     -0.001804
    16   Atom       -0.003859     -0.000152      0.002261
    17   Atom        0.000299     -0.003260     -0.000464
 --------------------------------------------------------


 ---------------------------------------------------------------------------------
              Anisotropic Spin Dipole Couplings in Principal Axis System
 ---------------------------------------------------------------------------------

       Atom             a.u.   MegaHertz   Gauss  10(-4) cm-1        Axes

              Baa    -0.0182    -2.442    -0.872    -0.815 -0.3639 -0.4290  0.8267
     1 C(13)  Bbb    -0.0111    -1.487    -0.530    -0.496  0.5050  0.6549  0.5622
              Bcc     0.0293     3.929     1.402     1.311  0.7826 -0.6221  0.0217
 
              Baa    -0.0081    -4.319    -1.541    -1.441 -0.3340  0.0081  0.9425
     2 H(1)   Bbb    -0.0050    -2.643    -0.943    -0.882  0.9272  0.1824  0.3271
              Bcc     0.0130     6.962     2.484     2.322 -0.1693  0.9832 -0.0685
 
              Baa    -0.0082    -4.395    -1.568    -1.466  0.1126  0.7451 -0.6574
     3 H(1)   Bbb    -0.0053    -2.833    -1.011    -0.945  0.9129  0.1836  0.3645
              Bcc     0.0135     7.228     2.579     2.411 -0.3922  0.6412  0.6595
 
              Baa    -0.3712   -49.810   -17.773   -16.615 -0.1114  0.9601  0.2566
     4 C(13)  Bbb    -0.3689   -49.498   -17.662   -16.511 -0.3265 -0.2792  0.9030
              Bcc     0.7401    99.308    35.436    33.126  0.9386  0.0168  0.3445
 
              Baa    -0.0468   -24.986    -8.916    -8.334  0.0156  0.9930 -0.1167
     5 H(1)   Bbb     0.0003     0.143     0.051     0.048  0.9938 -0.0026  0.1115
              Bcc     0.0466    24.842     8.864     8.287 -0.1104  0.1177  0.9869
 
              Baa    -0.0464   -24.739    -8.827    -8.252 -0.2979  0.5775  0.7601
     6 H(1)   Bbb    -0.0011    -0.593    -0.212    -0.198  0.8592 -0.1848  0.4771
              Bcc     0.0475    25.332     9.039     8.450  0.4160  0.7952 -0.4411
 
              Baa    -0.0068    -0.918    -0.328    -0.306  0.4281  0.4434  0.7875
     7 C(13)  Bbb    -0.0029    -0.384    -0.137    -0.128  0.7254 -0.6883 -0.0067
              Bcc     0.0097     1.301     0.464     0.434 -0.5391 -0.5741  0.6162
 
              Baa    -0.0059    -3.162    -1.128    -1.055 -0.0767  0.7010  0.7090
     8 H(1)   Bbb    -0.0028    -1.485    -0.530    -0.495  0.9445 -0.1767  0.2769
              Bcc     0.0087     4.647     1.658     1.550  0.3194  0.6909 -0.6486
 
              Baa    -0.0035    -1.863    -0.665    -0.621 -0.1037  0.9004  0.4225
     9 H(1)   Bbb    -0.0027    -1.423    -0.508    -0.475  0.7852 -0.1866  0.5905
              Bcc     0.0062     3.286     1.173     1.096 -0.6105 -0.3930  0.6876
 
              Baa    -0.0046    -2.464    -0.879    -0.822  0.1688  0.2583  0.9512
    10 H(1)   Bbb    -0.0042    -2.220    -0.792    -0.740  0.7408 -0.6698  0.0504
              Bcc     0.0088     4.684     1.671     1.562  0.6502  0.6962 -0.3044
 
              Baa    -0.2383    17.245     6.153     5.752 -0.2491  0.3592  0.8994
    11 O(17)  Bbb    -0.1623    11.744     4.191     3.917  0.1552  0.9315 -0.3290
              Bcc     0.4006   -28.989   -10.344    -9.670  0.9559 -0.0576  0.2878
 
              Baa    -0.9002    65.136    23.242    21.727  0.2409  0.8562 -0.4571
    12 O(17)  Bbb    -0.8912    64.489    23.011    21.511 -0.4220  0.5165  0.7451
              Bcc     1.7914  -129.625   -46.253   -43.238  0.8740  0.0134  0.4857
 
              Baa    -0.1244   -66.351   -23.676   -22.132  0.0172  0.9997 -0.0170
    13 H(1)   Bbb    -0.1206   -64.350   -22.962   -21.465 -0.2699  0.0210  0.9627
              Bcc     0.2450   130.702    46.638    43.597  0.9627 -0.0120  0.2702
 
              Baa    -0.0283    -3.795    -1.354    -1.266  0.2158  0.8324  0.5104
    14 C(13)  Bbb    -0.0268    -3.594    -1.282    -1.199 -0.2926 -0.4436  0.8471
              Bcc     0.0551     7.389     2.637     2.465  0.9316 -0.3322  0.1478
 
              Baa    -0.0065    -3.490    -1.245    -1.164  0.6189  0.7211 -0.3113
    15 H(1)   Bbb    -0.0029    -1.538    -0.549    -0.513 -0.3231  0.5950  0.7359
              Bcc     0.0094     5.028     1.794     1.677  0.7159 -0.3548  0.6013
 
              Baa    -0.0045    -2.412    -0.861    -0.805 -0.2854 -0.4102  0.8662
    16 H(1)   Bbb    -0.0017    -0.880    -0.314    -0.294  0.7782  0.4284  0.4593
              Bcc     0.0062     3.293     1.175     1.098 -0.5595  0.8051  0.1970
 
              Baa    -0.0065    -3.480    -1.242    -1.161  0.2051  0.1105  0.9725
    17 H(1)   Bbb    -0.0030    -1.580    -0.564    -0.527 -0.0535  0.9934 -0.1016
              Bcc     0.0095     5.060     1.805     1.688  0.9773  0.0312 -0.2097
 

 ---------------------------------------------------------------------------------

 1\1\GINC-N189\Scan\UB2PLYPD3-FC\CC-pVTZ\C4H11O2(2)\ROOT\19-Jun-2019\0\
 \# opt=(calcfc,ts,noeigentest,maxcyc=500,modredundant) uB2PLYPD3/cc-pv
 tz scf=maxcyc=500 nosymm\\Title Card Required\\0,2\C,1.6368340231,-0.2
 369892126,-0.597344176\H,1.058163247,-1.0525002972,-0.1619569407\H,1.5
 568850098,-0.339439763,-1.680277767\C,1.0618275033,1.0824641314,-0.168
 8560537\H,0.9230058384,1.2225653043,0.9002470982\H,1.474109309,1.96144
 60028,-0.6563718001\C,-2.3762533601,-0.0078929341,0.7712411657\H,-1.46
 53610553,-0.5248322953,1.0788492462\H,-3.0115839064,0.1659961163,1.637
 3294043\H,-2.9052460616,-0.6035637093,0.0291727665\O,-2.0789551964,1.2
 825224872,0.260282878\O,-1.3442761191,1.1137542897,-0.9302071204\H,-0.
 2334721853,1.1235922894,-0.5880503729\C,3.1077690935,-0.3817876335,-0.
 1837341458\H,3.2173003482,-0.3129818048,0.8979651233\H,3.505639267,-1.
 3442049786,-0.5036886868\H,3.7173462448,0.4018650072,-0.6319386189\\Ve
 rsion=ES64L-G16RevB.01\HF=-308.790359,-308.7903796,-308.7903806,-308.7
 903762,-308.7903749,-308.7903797,-308.7903963,-308.790426,-308.7904687
 ,-308.7905147,-308.7905596,-308.7905959,-308.790622,-308.790645,-308.7
 906744,-308.7907172,-308.7907735,-308.7908317,-308.790874,-308.7908826
 ,-308.7908627,-308.790829,-308.7907778,-308.7906989,-308.7905995,-308.
 7905001,-308.7904279,-308.7903758,-308.7903284,-308.7902808,-308.79023
 07,-308.7901872,-308.7901709,-308.7901895,-308.7902453,-308.7903126,-3
 08.7903602\MP2=-309.182138,-309.1821183,-309.1820795,-309.1820405,-309
 .1820092,-309.181991,-309.1819922,-309.1820178,-309.1820693,-309.18213
 83,-309.1822102,-309.1822719,-309.1823198,-309.1823619,-309.1824167,-3
 09.1825027,-309.1826285,-309.1827817,-309.1829231,-309.1830139,-309.18
 30442,-309.1830374,-309.1830074,-309.1829462,-309.1828636,-309.1827802
 ,-309.1826929,-309.1825795,-309.1824361,-309.1822791,-309.1821368,-309
 .1820329,-309.1819815,-309.181988,-309.182045,-309.1821126,-309.182138
 1\PUHF=-308.796524,-308.7965414,-308.7965394,-308.7965321,-308.7965276
 ,-308.7965303,-308.7965468,-308.796576,-308.7966199,-308.7966683,-308.
 7967158,-308.7967543,-308.7967821,-308.7968058,-308.7968347,-308.79687
 68,-308.7969317,-308.7969866,-308.7970167,-308.7970149,-308.7969849,-3
 08.7969473,-308.7968998,-308.7968281,-308.7967373,-308.7966471,-308.79
 65869,-308.796549,-308.7965143,-308.7964732,-308.7964236,-308.7963773,
 -308.7963565,-308.7963701,-308.7964194,-308.7964814,-308.7965259\PMP2-
 0=-309.1826468,-309.1826266,-309.1825873,-309.182548,-309.1825163,-309
 .1824976,-309.1824987,-309.1825241,-309.1825757,-309.1826448,-309.1827
 17,-309.1827789,-309.1828272,-309.1828695,-309.1829242,-309.18301,-309
 .1831354,-309.183288,-309.1834281,-309.183518,-309.1835474,-309.183540
 5,-309.1835114,-309.1834515,-309.1833702,-309.183288,-309.1832018,-309
 .1830898,-309.1829475,-309.1827915,-309.1826497,-309.182546,-309.18249
 43,-309.1825002,-309.182556,-309.1826223,-309.182647\S2=0.768325,0.768
 306,0.76829,0.768276,0.768262,0.768253,0.768253,0.768253,0.76826,0.768
 272,0.768282,0.768289,0.768294,0.768292,0.768282,0.768267,0.76825,0.76
 8235,0.768201,0.768186,0.76817,0.768171,0.768194,0.76823,0.768273,0.76
 8307,0.768331,0.768349,0.768367,0.768383,0.768398,0.768408,0.768414,0.
 768408,0.768384,0.768351,0.768327\S2-1=0.742755,0.742756,0.742759,0.74
 2761,0.742763,0.742762,0.742759,0.742756,0.742752,0.742747,0.742743,0.
 742742,0.742743,0.742747,0.742752,0.742754,0.742755,0.742755,0.742761,
 0.742765,0.74277,0.742775,0.742777,0.742778,0.742777,0.742773,0.742766
 ,0.74276,0.742757,0.74276,0.742766,0.74277,0.742771,0.742767,0.742763,
 0.742757,0.742754\S2A=0.750149,0.750149,0.750148,0.750148,0.750148,0.7
 50148,0.750148,0.750148,0.750148,0.750148,0.750148,0.750148,0.750148,0
 .750148,0.750148,0.750148,0.750148,0.750147,0.750147,0.750147,0.750147
 ,0.750147,0.750148,0.750148,0.750149,0.750149,0.750149,0.750149,0.7501
 49,0.750149,0.750149,0.750149,0.75015,0.75015,0.750149,0.750149,0.7501
 49\RMSD=2.710e-09,7.640e-09,5.994e-09,9.514e-09,3.012e-09,2.426e-09,5.
 809e-09,5.688e-09,7.892e-09,9.405e-09,7.063e-09,8.648e-09,2.412e-09,5.
 424e-09,2.574e-09,4.051e-09,5.765e-09,5.975e-09,3.144e-09,8.174e-09,5.
 375e-09,4.032e-09,3.832e-09,7.349e-09,3.040e-09,6.897e-09,6.805e-09,7.
 971e-09,2.560e-09,8.188e-09,4.776e-09,3.591e-09,5.216e-09,8.358e-09,6.
 167e-09,7.780e-09,4.097e-09\PG=C01 [X(C4H11O2)]\\@


 THE FIRST MORNING OF CREATION WROTE WHAT THE LAST DAWN OF
 RECKONING SHALL READ. -- OMAR KHAYYAM
 Job cpu time:      16 days 10 hours 46 minutes 42.7 seconds.
 Elapsed time:       0 days 14 hours  4 minutes 22.8 seconds.
 File lengths (MBytes):  RWF=  75941 Int=      0 D2E=      0 Chk=     20 Scr=      1
 Normal termination of Gaussian 16 at Wed Jun 19 16:39:05 2019.
