 Entering Gaussian System, Link 0=g16
 Initial command:
 /ichec/packages/gaussian/16b01/l1.exe "/localscratch/341085/Gau-17264.inp" -scrdir="/localscratch/341085/"
 Entering Link 1 = /ichec/packages/gaussian/16b01/l1.exe PID=     18240.
  
 Copyright (c) 1988-2017, Gaussian, Inc.  All Rights Reserved.
  
 This is part of the Gaussian(R) 16 program.  It is based on
 the Gaussian(R) 09 system (copyright 2009, Gaussian, Inc.),
 the Gaussian(R) 03 system (copyright 2003, Gaussian, Inc.),
 the Gaussian(R) 98 system (copyright 1998, Gaussian, Inc.),
 the Gaussian(R) 94 system (copyright 1995, Gaussian, Inc.),
 the Gaussian 92(TM) system (copyright 1992, Gaussian, Inc.),
 the Gaussian 90(TM) system (copyright 1990, Gaussian, Inc.),
 the Gaussian 88(TM) system (copyright 1988, Gaussian, Inc.),
 the Gaussian 86(TM) system (copyright 1986, Carnegie Mellon
 University), and the Gaussian 82(TM) system (copyright 1983,
 Carnegie Mellon University). Gaussian is a federally registered
 trademark of Gaussian, Inc.
  
 This software contains proprietary and confidential information,
 including trade secrets, belonging to Gaussian, Inc.
  
 This software is provided under written license and may be
 used, copied, transmitted, or stored only in accord with that
 written license.
  
 The following legend is applicable only to US Government
 contracts under FAR:
  
                    RESTRICTED RIGHTS LEGEND
  
 Use, reproduction and disclosure by the US Government is
 subject to restrictions as set forth in subparagraphs (a)
 and (c) of the Commercial Computer Software - Restricted
 Rights clause in FAR 52.227-19.
  
 Gaussian, Inc.
 340 Quinnipiac St., Bldg. 40, Wallingford CT 06492
  
  
 ---------------------------------------------------------------
 Warning -- This program may not be used in any manner that
 competes with the business of Gaussian, Inc. or will provide
 assistance to any competitor of Gaussian, Inc.  The licensee
 of this program is prohibited from giving any competitor of
 Gaussian, Inc. access to this program.  By using this program,
 the user acknowledges that Gaussian, Inc. is engaged in the
 business of creating and licensing software in the field of
 computational chemistry and represents and warrants to the
 licensee that it is not a competitor of Gaussian, Inc. and that
 it will not use this program in any manner prohibited above.
 ---------------------------------------------------------------
  

 Cite this work as:
 Gaussian 16, Revision B.01,
 M. J. Frisch, G. W. Trucks, H. B. Schlegel, G. E. Scuseria, 
 M. A. Robb, J. R. Cheeseman, G. Scalmani, V. Barone, 
 G. A. Petersson, H. Nakatsuji, X. Li, M. Caricato, A. V. Marenich, 
 J. Bloino, B. G. Janesko, R. Gomperts, B. Mennucci, H. P. Hratchian, 
 J. V. Ortiz, A. F. Izmaylov, J. L. Sonnenberg, D. Williams-Young, 
 F. Ding, F. Lipparini, F. Egidi, J. Goings, B. Peng, A. Petrone, 
 T. Henderson, D. Ranasinghe, V. G. Zakrzewski, J. Gao, N. Rega, 
 G. Zheng, W. Liang, M. Hada, M. Ehara, K. Toyota, R. Fukuda, 
 J. Hasegawa, M. Ishida, T. Nakajima, Y. Honda, O. Kitao, H. Nakai, 
 T. Vreven, K. Throssell, J. A. Montgomery, Jr., J. E. Peralta, 
 F. Ogliaro, M. J. Bearpark, J. J. Heyd, E. N. Brothers, K. N. Kudin, 
 V. N. Staroverov, T. A. Keith, R. Kobayashi, J. Normand, 
 K. Raghavachari, A. P. Rendell, J. C. Burant, S. S. Iyengar, 
 J. Tomasi, M. Cossi, J. M. Millam, M. Klene, C. Adamo, R. Cammi, 
 J. W. Ochterski, R. L. Martin, K. Morokuma, O. Farkas, 
 J. B. Foresman, and D. J. Fox, Gaussian, Inc., Wallingford CT, 2016.
 
 ******************************************
 Gaussian 16:  ES64L-G16RevB.01 20-Dec-2017
                 5-Jun-2019 
 ******************************************
 %mem=80GB
 %nproc=40
 Will use up to   40 processors via shared memory.
 ----------------------------------------------------------------------
 # opt=(calcfc,ts,noeigentest,maxcyc=500) freq=noraman uB2PLYPD3/cc-pvt
 z
 ----------------------------------------------------------------------
 1/5=1,6=500,10=4,11=1,18=20,38=1/1,3;
 2/9=110,12=2,17=6,18=5,40=1/2;
 3/5=16,6=1,11=2,25=1,30=1,71=2,74=-60,116=2,140=1/1,2,3;
 4//1;
 5/5=2,38=5/2;
 8/6=3,8=1,10=1,19=11,30=-1/1;
 9/15=3,16=-3/6;
 11/6=1,8=1,15=11,17=12,24=-1,27=1,28=-2,29=300,32=6,42=3/1,2,10;
 10/6=2,21=1/2;
 8/6=4,8=1,10=1,19=11,30=-1/11,4;
 10/5=1,20=4/2;
 11/12=2,14=11,16=1,17=2,28=-2,42=3,76=2/2,10,12;
 6/7=2,8=2,9=2,10=2/1;
 7/10=1,12=2,25=1,44=2/1,2,3,16;
 1/5=1,6=500,10=4,11=1,18=20/3(2);
 2/9=110/2;
 99//99;
 2/9=110/2;
 3/5=16,6=1,11=2,25=1,30=1,71=1,74=-60,116=2/1,2,3;
 4/5=5,16=3,69=1/1;
 5/5=2,38=5/2;
 8/6=4,10=1/1;
 9/15=2,16=-3/6;
 10/5=1/2;
 7/12=2/1,2,3,16;
 1/5=1,6=500,11=1,18=20/3(-8);
 2/9=110/2;
 6/7=2,8=2,9=2,10=2/1;
 99/9=10/99;
 -------------------
 Title Card Required
 -------------------
 Symbolic Z-matrix:
 Charge =  0 Multiplicity = 2
 C                     1.15142   0.25073  -0.11246 
 H                     1.00856   1.30487   0.14113 
 H                     2.02943  -0.13982   0.39723 
 H                     1.25239   0.13876  -1.19118 
 O                     0.0616   -0.51315   0.36496 
 O                    -1.06759  -0.13204  -0.32114 
 H                    -1.45116   0.75277   0.23458 
 H                    -1.69982   1.60056   0.74242 
 
 Add virtual bond connecting atoms H8         and H7         Dist= 1.93D+00.

 GradGradGradGradGradGradGradGradGradGradGradGradGradGradGradGradGradGrad
 Berny optimization.
 Initialization pass.
                           ----------------------------
                           !    Initial Parameters    !
                           ! (Angstroms and Degrees)  !
 --------------------------                            --------------------------
 ! Name  Definition              Value          Derivative Info.                !
 --------------------------------------------------------------------------------
 ! R1    R(1,2)                  1.0936         calculate D2E/DX2 analytically  !
 ! R2    R(1,3)                  1.0878         calculate D2E/DX2 analytically  !
 ! R3    R(1,4)                  1.0892         calculate D2E/DX2 analytically  !
 ! R4    R(1,5)                  1.4139         calculate D2E/DX2 analytically  !
 ! R5    R(5,6)                  1.3752         calculate D2E/DX2 analytically  !
 ! R6    R(6,7)                  1.113          calculate D2E/DX2 analytically  !
 ! R7    R(7,8)                  1.0191         calculate D2E/DX2 analytically  !
 ! A1    A(2,1,3)              110.0526         calculate D2E/DX2 analytically  !
 ! A2    A(2,1,4)              109.929          calculate D2E/DX2 analytically  !
 ! A3    A(2,1,5)              109.9862         calculate D2E/DX2 analytically  !
 ! A4    A(3,1,4)              110.629          calculate D2E/DX2 analytically  !
 ! A5    A(3,1,5)              105.6622         calculate D2E/DX2 analytically  !
 ! A6    A(4,1,5)              110.5068         calculate D2E/DX2 analytically  !
 ! A7    A(1,5,6)              108.3441         calculate D2E/DX2 analytically  !
 ! A8    A(5,6,7)              104.7255         calculate D2E/DX2 analytically  !
 ! A9    L(6,7,8,2,-1)         173.8602         calculate D2E/DX2 analytically  !
 ! A10   L(6,7,8,2,-2)         179.7444         calculate D2E/DX2 analytically  !
 ! D1    D(2,1,5,6)             65.7557         calculate D2E/DX2 analytically  !
 ! D2    D(3,1,5,6)           -175.5002         calculate D2E/DX2 analytically  !
 ! D3    D(4,1,5,6)            -55.796          calculate D2E/DX2 analytically  !
 ! D4    D(1,5,6,7)            -85.2968         calculate D2E/DX2 analytically  !
 --------------------------------------------------------------------------------
 Trust Radius=3.00D-01 FncErr=1.00D-07 GrdErr=1.00D-07 EigMax=2.50D+02 EigMin=1.00D-04
 Number of steps in this run=    100 maximum allowed number of steps=    100.
 Search for a saddle point of order  1.
 GradGradGradGradGradGradGradGradGradGradGradGradGradGradGradGradGradGrad

                          Input orientation:                          
 ---------------------------------------------------------------------
 Center     Atomic      Atomic             Coordinates (Angstroms)
 Number     Number       Type             X           Y           Z
 ---------------------------------------------------------------------
      1          6           0        1.151418    0.250731   -0.112456
      2          1           0        1.008565    1.304870    0.141128
      3          1           0        2.029428   -0.139820    0.397225
      4          1           0        1.252388    0.138758   -1.191179
      5          8           0        0.061604   -0.513152    0.364961
      6          8           0       -1.067593   -0.132038   -0.321140
      7          1           0       -1.451162    0.752767    0.234576
      8          1           0       -1.699818    1.600563    0.742419
 ---------------------------------------------------------------------
                    Distance matrix (angstroms):
                    1          2          3          4          5
     1  C    0.000000
     2  H    1.093582   0.000000
     3  H    1.087753   1.787422   0.000000
     4  H    1.089209   1.787263   1.790091   0.000000
     5  O    1.413909   2.062048   2.003185   2.065073   0.000000
     6  O    2.261431   2.566871   3.179253   2.492511   1.375161
     7  H    2.673181   2.522659   3.596898   3.117526   1.976869
     8  H    3.268395   2.790040   4.129814   3.819842   2.777206
                    6          7          8
     6  O    0.000000
     7  H    1.113025   0.000000
     8  H    2.129031   1.019064   0.000000
 Stoichiometry    CH5O2(2)
 Framework group  C1[X(CH5O2)]
 Deg. of freedom    18
 Full point group                 C1      NOp   1
 Largest Abelian subgroup         C1      NOp   1
 Largest concise Abelian subgroup C1      NOp   1
                         Standard orientation:                         
 ---------------------------------------------------------------------
 Center     Atomic      Atomic             Coordinates (Angstroms)
 Number     Number       Type             X           Y           Z
 ---------------------------------------------------------------------
      1          6           0       -1.151418    0.250731    0.112456
      2          1           0       -1.008565    1.304870   -0.141128
      3          1           0       -2.029428   -0.139820   -0.397225
      4          1           0       -1.252388    0.138758    1.191179
      5          8           0       -0.061604   -0.513152   -0.364961
      6          8           0        1.067593   -0.132038    0.321140
      7          1           0        1.451162    0.752767   -0.234576
      8          1           0        1.699818    1.600563   -0.742419
 ---------------------------------------------------------------------
 Rotational constants (GHZ):          32.0673994           9.7631649           8.9484512
 Standard basis: CC-pVTZ (5D, 7F)
 There are   180 symmetry adapted cartesian basis functions of A   symmetry.
 There are   160 symmetry adapted basis functions of A   symmetry.
   160 basis functions,   241 primitive gaussians,   180 cartesian basis functions
    14 alpha electrons       13 beta electrons
       nuclear repulsion energy        87.4646051894 Hartrees.
 NAtoms=    8 NActive=    8 NUniq=    8 SFac= 1.00D+00 NAtFMM=   60 NAOKFM=F Big=F
 Integral buffers will be    131072 words long.
 Raffenetti 2 integral format.
 Two-electron integral symmetry is turned on.
 Nuclear repulsion after empirical dispersion term =       87.4622152471 Hartrees.
 One-electron integrals computed using PRISM.
 NBasis=   160 RedAO= T EigKep=  1.84D-03  NBF=   160
 NBsUse=   160 1.00D-06 EigRej= -1.00D+00 NBFU=   160
 ExpMin= 1.03D-01 ExpMax= 1.53D+04 ExpMxC= 5.22D+02 IAcc=3 IRadAn=         5 AccDes= 0.00D+00
 Harris functional with IExCor=  419 and IRadAn=       5 diagonalized for initial guess.
 HarFok:  IExCor=  419 AccDes= 0.00D+00 IRadAn=         5 IDoV= 1 UseB2=F ITyADJ=14
 ICtDFT=  3500011 ScaDFX=  1.000000  1.000000  1.000000  1.000000
 FoFCou: FMM=F IPFlag=           0 FMFlag=      100000 FMFlg1=           0
         NFxFlg=           0 DoJE=T BraDBF=F KetDBF=T FulRan=T
         wScrn=  0.000000 ICntrl=       500 IOpCl=  0 I1Cent=   200000004 NGrid=           0
         NMat0=    1 NMatS0=      1 NMatT0=    0 NMatD0=    1 NMtDS0=    0 NMtDT0=    0
 Petite list used in FoFCou.
 Initial guess <Sx>= 0.0000 <Sy>= 0.0000 <Sz>= 0.5000 <S**2>= 0.7500 S= 0.5000
 Keep R1 and R2 ints in memory in canonical form, NReq=206286096.
 Requested convergence on RMS density matrix=1.00D-08 within 128 cycles.
 Requested convergence on MAX density matrix=1.00D-06.
 Requested convergence on             energy=1.00D-06.
 No special actions if energy rises.
 Integral accuracy reduced to 1.0D-05 until final iterations.
 Initial convergence to 1.0D-05 achieved.  Increase integral accuracy.
 SCF Done:  E(UB2PLYPD3) =  -191.062701017     A.U. after   19 cycles
            NFock= 19  Conv=0.67D-08     -V/T= 2.0039
 <Sx>= 0.0000 <Sy>= 0.0000 <Sz>= 0.5000 <S**2>= 0.7693 S= 0.5096
 <L.S>=  0.00000000000    
 Annihilation of the first spin contaminant:
 S**2 before annihilation     0.7693,   after     0.7501
 DoSCS=T DFT=T ScalE2(SS,OS)=  0.270000  0.270000
 ExpMin= 1.03D-01 ExpMax= 1.53D+04 ExpMxC= 5.22D+02 IAcc=3 IRadAn=         5 AccDes= 0.00D+00
 HarFok:  IExCor=  205 AccDes= 0.00D+00 IRadAn=         5 IDoV=-2 UseB2=F ITyADJ=14
 ICtDFT= 12500011 ScaDFX=  1.000000  1.000000  1.000000  1.000000
 Range of M.O.s used for correlation:     4   160
 NBasis=   160 NAE=    14 NBE=    13 NFC=     3 NFV=     0
 NROrb=    157 NOA=    11 NOB=    10 NVA=   146 NVB=   147

 **** Warning!!: The largest alpha MO coefficient is  0.11977314D+02


 **** Warning!!: The largest beta MO coefficient is  0.11977182D+02

 DoSCS=T DFT=T ScalE2(SS,OS)=  0.270000  0.270000
 Disk-based method using ON**2 memory for 11 occupieds at a time.
 Permanent disk used for amplitudes=     5706337 words.
 Estimated scratch disk usage=   117381096 words.
 Actual    scratch disk usage=   113459176 words.
 JobTyp=2 Pass  1:  I=   4 to  14 NPSUse= 40 ParTrn=T ParDer=T DoDerP=T.
 (rs|ai) integrals will be sorted in core.
 Actual    scratch disk usage=   113459176 words.
 JobTyp=3 Pass  1:  I=   4 to  13 NPSUse= 40 ParTrn=T ParDer=T DoDerP=T.
 (rs|ai) integrals will be sorted in core.
 Spin components of T(2) and E(2):
     alpha-alpha T2 =       0.3257225385D-01 E2=     -0.2698849091D-01
     alpha-beta  T2 =       0.2096567026D+00 E2=     -0.1679446246D+00
     beta-beta   T2 =       0.3856396435D-01 E2=     -0.2749206763D-01
 (S**2,0)=  0.76931D+00           (S**2,1)=  0.74394D+00
 Scaling Projection term by:   0.270000
 E(PUHF)=      -0.19106864372D+03        E(PMP2)=      -0.19128567908D+03
 E2(B2PLYPD3) =    -0.2224251832D+00 E(B2PLYPD3) =    -0.19128512620032D+03
 G2DrvN: will do     9 centers at a time, making    1 passes.
 Calling FoFCou, ICntrl=  3107 FMM=F I1Cent=   0 AccDes= 0.00D+00.
 End of G2Drv F.D. properties file   721 does not exist.
 End of G2Drv F.D. properties file   722 does not exist.
 End of G2Drv F.D. properties file   788 does not exist.
          IDoAtm=11111111
          Differentiating once with respect to electric field.
                with respect to dipole field.
          Differentiating once with respect to nuclear coordinates.
 Keep R1 and R2 ints in memory in canonical form, NReq=206153662.
          There are    27 degrees of freedom in the 1st order CPHF.  IDoFFX=6 NUNeed=    27.
     24 vectors produced by pass  0 Test12= 1.46D-14 3.70D-09 XBig12= 3.03D+01 3.00D+00.
 AX will form    24 AO Fock derivatives at one time.
     24 vectors produced by pass  1 Test12= 1.46D-14 3.70D-09 XBig12= 3.11D+00 3.57D-01.
     24 vectors produced by pass  2 Test12= 1.46D-14 3.70D-09 XBig12= 1.41D-01 5.50D-02.
     24 vectors produced by pass  3 Test12= 1.46D-14 3.70D-09 XBig12= 1.94D-03 7.37D-03.
     24 vectors produced by pass  4 Test12= 1.46D-14 3.70D-09 XBig12= 1.97D-05 6.60D-04.
     24 vectors produced by pass  5 Test12= 1.46D-14 3.70D-09 XBig12= 2.38D-07 7.62D-05.
     24 vectors produced by pass  6 Test12= 1.46D-14 3.70D-09 XBig12= 2.02D-09 5.70D-06.
      7 vectors produced by pass  7 Test12= 1.46D-14 3.70D-09 XBig12= 1.31D-11 4.11D-07.
      3 vectors produced by pass  8 Test12= 1.46D-14 3.70D-09 XBig12= 5.71D-14 2.52D-08.
 InvSVY:  IOpt=1 It=  1 EMax= 5.33D-15
 Solved reduced A of dimension   178 with    27 vectors.
 End of Minotr F.D. properties file   721 does not exist.
 End of Minotr F.D. properties file   722 does not exist.
 End of Minotr F.D. properties file   788 does not exist.
 MDV= 10737418240.
 DoSCS=T DFT=T ScalE2(SS,OS)=  0.270000  0.270000
 Form MO integral derivatives with frozen-active canonical formalism.
 Discarding MO integrals.
 Reordered first order wavefunction length =     23137793
 In DefCFB: NBatch=  1 ICI= 14 ICA=147 LFMax= 74
            Large arrays: LIAPS=   455616000 LIARS=   181515600 words.
 In DefCFB: NBatch=  1 ICI= 14 ICA=147 LFMax= 74
            Large arrays: LIAPS=   455616000 LIARS=   181515600 words.
 Semi-Direct transformation.
 ModeAB=           2 MOrb=            14 LenV=   10736500381
 LASXX=     26967101 LTotXX=    26967101 LenRXX=    26967101
 LTotAB=    27679120 MaxLAS=    36489600 LenRXY=    36489600
 NonZer=    53934202 LenScr=    81682432 LnRSAI=           0
 LnScr1=           0 LExtra=           0 Total=    145139133
 MaxDsk=          -1 SrtSym=           F ITran=            4
 JobTyp=1 Pass  1:  I=   1 to  14.
 (rs|ai) integrals will be sorted in core.
 ModeAB=           2 MOrb=            13 LenV=   10736500381
 LASXX=     25148019 LTotXX=    25148019 LenRXX=    33883200
 LTotAB=    21483462 MaxLAS=    33883200 LenRXY=    21483462
 NonZer=    50296038 LenScr=    76217344 LnRSAI=           0
 LnScr1=           0 LExtra=           0 Total=    131584006
 MaxDsk=          -1 SrtSym=           F ITran=            4
 JobTyp=2 Pass  1:  I=   1 to  13.
 (rs|ai) integrals will be sorted in core.
 SymMOI:  orbitals are not symmetric.
 DoSCS=T DFT=T ScalE2(SS,OS)=  0.270000  0.270000
 Spin components of T(2) and E(2):
     alpha-alpha T2 =       0.3257225385D-01 E2=     -0.2698849091D-01
     alpha-beta  T2 =       0.2096567026D+00 E2=     -0.1679446246D+00
     beta-beta   T2 =       0.3856396435D-01 E2=     -0.2749206763D-01
 E2(B2PLYPD3) =    -0.2224251832D+00 E(B2PLYPD3) =    -0.19128512620032D+03
 (S**2,0)=  0.76931D+00           (S**2,1)=  0.74394D+00
 Scaling Projection term by:   0.270000
 E(PUHF)=      -0.19106864372D+03        E(PMP2)=      -0.19128567908D+03
          IDoAtm=11111111
          Differentiating once with respect to electric field.
                with respect to dipole field.
          Differentiating once with respect to nuclear coordinates.
 Keep R1 and R2 ints in memory in canonical form, NReq=206291724.
          There are     1 degrees of freedom in the 1st order CPHF.  IDoFFX=0 NUNeed=     1.
 LinEq1:  Iter=  0 NonCon=     1 RMS=1.47D-03 Max=6.05D-02 NDo=     1
 AX will form     1 AO Fock derivatives at one time.
 LinEq1:  Iter=  1 NonCon=     1 RMS=3.98D-04 Max=6.12D-03 NDo=     1
 LinEq1:  Iter=  2 NonCon=     1 RMS=2.71D-04 Max=5.12D-03 NDo=     1
 LinEq1:  Iter=  3 NonCon=     1 RMS=1.33D-04 Max=2.19D-03 NDo=     1
 LinEq1:  Iter=  4 NonCon=     1 RMS=6.85D-05 Max=1.16D-03 NDo=     1
 LinEq1:  Iter=  5 NonCon=     1 RMS=3.51D-05 Max=5.26D-04 NDo=     1
 LinEq1:  Iter=  6 NonCon=     1 RMS=2.24D-05 Max=3.96D-04 NDo=     1
 LinEq1:  Iter=  7 NonCon=     1 RMS=7.75D-06 Max=8.93D-05 NDo=     1
 LinEq1:  Iter=  8 NonCon=     1 RMS=2.67D-06 Max=4.38D-05 NDo=     1
 LinEq1:  Iter=  9 NonCon=     1 RMS=8.28D-07 Max=2.30D-05 NDo=     1
 LinEq1:  Iter= 10 NonCon=     1 RMS=2.34D-07 Max=6.29D-06 NDo=     1
 LinEq1:  Iter= 11 NonCon=     1 RMS=7.04D-08 Max=1.35D-06 NDo=     1
 LinEq1:  Iter= 12 NonCon=     1 RMS=1.89D-08 Max=3.61D-07 NDo=     1
 LinEq1:  Iter= 13 NonCon=     1 RMS=5.63D-09 Max=8.88D-08 NDo=     1
 LinEq1:  Iter= 14 NonCon=     1 RMS=1.58D-09 Max=2.48D-08 NDo=     1
 LinEq1:  Iter= 15 NonCon=     1 RMS=4.12D-10 Max=5.01D-09 NDo=     1
 LinEq1:  Iter= 16 NonCon=     1 RMS=1.03D-10 Max=9.48D-10 NDo=     1
 LinEq1:  Iter= 17 NonCon=     0 RMS=3.23D-11 Max=3.71D-10 NDo=     1
 Linear equations converged to 1.000D-10 1.000D-09 after    17 iterations.
 End of Minotr F.D. properties file   721 does not exist.
 End of Minotr F.D. properties file   722 does not exist.
 End of Minotr F.D. properties file   788 does not exist.
 Symmetrizing basis deriv contribution to polar:
 IMax=3 JMax=2 DiffMx= 0.00D+00
 G2DrvN: will do     9 centers at a time, making    1 passes.
 Calling FoFCou, ICntrl=  3107 FMM=F I1Cent=   0 AccDes= 0.00D+00.
 End of G2Drv F.D. properties file   721 does not exist.
 End of G2Drv F.D. properties file   722 does not exist.
 End of G2Drv F.D. properties file   788 does not exist.
 DoSCS=T DFT=T ScalE2(SS,OS)=  0.270000  0.270000
 R2 and R3 integrals will be kept in memory, NReq=   268345170.
 DD1Dir will call FoFMem   1 times, MxPair=       534
 NAB=   182 NAA=    91 NBB=    78.
 Discarding MO integrals.

 **********************************************************************

            Population analysis using the SCF Density.

 **********************************************************************

 Orbital symmetries:
 Alpha Orbitals:
       Occupied  (A) (A) (A) (A) (A) (A) (A) (A) (A) (A) (A) (A)
                 (A) (A)
       Virtual   (A) (A) (A) (A) (A) (A) (A) (A) (A) (A) (A) (A)
                 (A) (A) (A) (A) (A) (A) (A) (A) (A) (A) (A) (A)
                 (A) (A) (A) (A) (A) (A) (A) (A) (A) (A) (A) (A)
                 (A) (A) (A) (A) (A) (A) (A) (A) (A) (A) (A) (A)
                 (A) (A) (A) (A) (A) (A) (A) (A) (A) (A) (A) (A)
                 (A) (A) (A) (A) (A) (A) (A) (A) (A) (A) (A) (A)
                 (A) (A) (A) (A) (A) (A) (A) (A) (A) (A) (A) (A)
                 (A) (A) (A) (A) (A) (A) (A) (A) (A) (A) (A) (A)
                 (A) (A) (A) (A) (A) (A) (A) (A) (A) (A) (A) (A)
                 (A) (A) (A) (A) (A) (A) (A) (A) (A) (A) (A) (A)
                 (A) (A) (A) (A) (A) (A) (A) (A) (A) (A) (A) (A)
                 (A) (A) (A) (A) (A) (A) (A) (A) (A) (A) (A) (A)
                 (A) (A)
 Beta  Orbitals:
       Occupied  (A) (A) (A) (A) (A) (A) (A) (A) (A) (A) (A) (A)
                 (A)
       Virtual   (A) (A) (A) (A) (A) (A) (A) (A) (A) (A) (A) (A)
                 (A) (A) (A) (A) (A) (A) (A) (A) (A) (A) (A) (A)
                 (A) (A) (A) (A) (A) (A) (A) (A) (A) (A) (A) (A)
                 (A) (A) (A) (A) (A) (A) (A) (A) (A) (A) (A) (A)
                 (A) (A) (A) (A) (A) (A) (A) (A) (A) (A) (A) (A)
                 (A) (A) (A) (A) (A) (A) (A) (A) (A) (A) (A) (A)
                 (A) (A) (A) (A) (A) (A) (A) (A) (A) (A) (A) (A)
                 (A) (A) (A) (A) (A) (A) (A) (A) (A) (A) (A) (A)
                 (A) (A) (A) (A) (A) (A) (A) (A) (A) (A) (A) (A)
                 (A) (A) (A) (A) (A) (A) (A) (A) (A) (A) (A) (A)
                 (A) (A) (A) (A) (A) (A) (A) (A) (A) (A) (A) (A)
                 (A) (A) (A) (A) (A) (A) (A) (A) (A) (A) (A) (A)
                 (A) (A) (A)
 The electronic state is 2-A.
 Alpha  occ. eigenvalues --  -19.81341 -19.80665 -10.67193  -1.31625  -1.04195
 Alpha  occ. eigenvalues --   -0.79442  -0.65375  -0.58128  -0.56903  -0.51856
 Alpha  occ. eigenvalues --   -0.46034  -0.41922  -0.38533  -0.34485
 Alpha virt. eigenvalues --    0.08824   0.12455   0.14548   0.14877   0.17990
 Alpha virt. eigenvalues --    0.21326   0.28787   0.30360   0.32272   0.42621
 Alpha virt. eigenvalues --    0.48529   0.48881   0.50116   0.51174   0.52853
 Alpha virt. eigenvalues --    0.54070   0.56132   0.57660   0.66255   0.67064
 Alpha virt. eigenvalues --    0.72519   0.77047   0.80229   0.83284   0.89755
 Alpha virt. eigenvalues --    0.92526   0.95261   1.00428   1.02397   1.05641
 Alpha virt. eigenvalues --    1.07145   1.13302   1.14738   1.17385   1.19027
 Alpha virt. eigenvalues --    1.30625   1.35509   1.37319   1.38357   1.45256
 Alpha virt. eigenvalues --    1.50817   1.60572   1.65107   1.77512   1.86020
 Alpha virt. eigenvalues --    1.98719   1.99296   2.03725   2.06842   2.11416
 Alpha virt. eigenvalues --    2.18797   2.23699   2.31915   2.36574   2.43213
 Alpha virt. eigenvalues --    2.48348   2.48832   2.55642   2.70916   2.81852
 Alpha virt. eigenvalues --    2.89110   2.90838   2.95251   3.01076   3.01636
 Alpha virt. eigenvalues --    3.06584   3.09997   3.11983   3.14080   3.15314
 Alpha virt. eigenvalues --    3.18628   3.25810   3.30368   3.39523   3.41521
 Alpha virt. eigenvalues --    3.47236   3.50608   3.51729   3.55500   3.58034
 Alpha virt. eigenvalues --    3.58907   3.61546   3.63726   3.66279   3.74118
 Alpha virt. eigenvalues --    3.81834   3.83921   3.86130   3.88163   3.93679
 Alpha virt. eigenvalues --    3.95080   3.95513   4.00291   4.07303   4.09874
 Alpha virt. eigenvalues --    4.16593   4.17796   4.24372   4.33610   4.34560
 Alpha virt. eigenvalues --    4.43223   4.53368   4.67335   4.70606   4.71820
 Alpha virt. eigenvalues --    4.81138   4.82516   4.92102   4.97065   4.97914
 Alpha virt. eigenvalues --    5.00739   5.06099   5.23236   5.29035   5.30134
 Alpha virt. eigenvalues --    5.34065   5.35597   5.37762   5.38855   5.47328
 Alpha virt. eigenvalues --    5.68053   5.77026   5.90597   5.92017   5.95119
 Alpha virt. eigenvalues --    6.07976   6.14611   6.26401   6.40493   6.47019
 Alpha virt. eigenvalues --    6.52298   6.65471   6.70024   6.75964   6.81094
 Alpha virt. eigenvalues --    6.94242   7.03035   7.05490   7.11463   7.42326
 Alpha virt. eigenvalues --    7.44423   7.60206   7.76266  10.02915  11.11526
 Alpha virt. eigenvalues --   13.37421
  Beta  occ. eigenvalues --  -19.80419 -19.79814 -10.67201  -1.29607  -1.01407
  Beta  occ. eigenvalues --   -0.78881  -0.61199  -0.56550  -0.56483  -0.48648
  Beta  occ. eigenvalues --   -0.45157  -0.37701  -0.35562
  Beta virt. eigenvalues --   -0.08269   0.08957   0.13154   0.14629   0.14969
  Beta virt. eigenvalues --    0.19280   0.23321   0.29510   0.30773   0.33526
  Beta virt. eigenvalues --    0.43140   0.48916   0.50360   0.51283   0.51867
  Beta virt. eigenvalues --    0.55038   0.55377   0.57487   0.58918   0.66697
  Beta virt. eigenvalues --    0.67801   0.74565   0.77557   0.81818   0.84333
  Beta virt. eigenvalues --    0.89877   0.93030   0.96438   1.01298   1.02666
  Beta virt. eigenvalues --    1.05934   1.07843   1.14198   1.15223   1.18960
  Beta virt. eigenvalues --    1.19340   1.30881   1.35653   1.37344   1.38444
  Beta virt. eigenvalues --    1.46153   1.51221   1.60657   1.65997   1.77772
  Beta virt. eigenvalues --    1.87520   1.99455   2.00427   2.05993   2.07802
  Beta virt. eigenvalues --    2.13648   2.18916   2.25533   2.32522   2.37837
  Beta virt. eigenvalues --    2.43837   2.48477   2.54629   2.56239   2.70970
  Beta virt. eigenvalues --    2.81918   2.89189   2.90868   2.95700   3.01456
  Beta virt. eigenvalues --    3.03109   3.08443   3.10414   3.12454   3.14978
  Beta virt. eigenvalues --    3.15803   3.19028   3.29151   3.33611   3.39642
  Beta virt. eigenvalues --    3.42040   3.48257   3.51383   3.51866   3.56340
  Beta virt. eigenvalues --    3.59185   3.60796   3.62712   3.65450   3.68070
  Beta virt. eigenvalues --    3.76018   3.83032   3.86459   3.89670   3.89933
  Beta virt. eigenvalues --    3.94895   3.95657   3.96459   4.01818   4.09083
  Beta virt. eigenvalues --    4.10505   4.16741   4.17889   4.24670   4.33704
  Beta virt. eigenvalues --    4.34831   4.43521   4.56260   4.69208   4.71792
  Beta virt. eigenvalues --    4.73469   4.81864   4.83006   4.92251   4.97795
  Beta virt. eigenvalues --    4.99023   5.01032   5.06458   5.24108   5.29304
  Beta virt. eigenvalues --    5.30630   5.34303   5.36294   5.38220   5.39623
  Beta virt. eigenvalues --    5.47709   5.68785   5.77991   5.91338   5.93243
  Beta virt. eigenvalues --    5.95382   6.08540   6.16632   6.26818   6.40845
  Beta virt. eigenvalues --    6.50123   6.54105   6.66513   6.71912   6.77990
  Beta virt. eigenvalues --    6.83359   6.95698   7.03634   7.06914   7.13390
  Beta virt. eigenvalues --    7.42907   7.46328   7.61541   7.77724  10.03616
  Beta virt. eigenvalues --   11.12662  13.37424
          Condensed to atoms (all electrons):
               1          2          3          4          5          6
     1  C    4.585991   0.396803   0.394256   0.408899   0.307303  -0.045329
     2  H    0.396803   0.666215  -0.030463  -0.059728  -0.047109  -0.003705
     3  H    0.394256  -0.030463   0.587297  -0.029180  -0.025453   0.006971
     4  H    0.408899  -0.059728  -0.029180   0.635449  -0.043546   0.003886
     5  O    0.307303  -0.047109  -0.025453  -0.043546   7.921314   0.073161
     6  O   -0.045329  -0.003705   0.006971   0.003886   0.073161   8.001541
     7  H   -0.001277   0.007151  -0.000748  -0.000915  -0.028189   0.211662
     8  H   -0.004490   0.002746   0.000233  -0.000165   0.001569  -0.064435
               7          8
     1  C   -0.001277  -0.004490
     2  H    0.007151   0.002746
     3  H   -0.000748   0.000233
     4  H   -0.000915  -0.000165
     5  O   -0.028189   0.001569
     6  O    0.211662  -0.064435
     7  H    0.441313   0.178761
     8  H    0.178761   0.943540
          Atomic-Atomic Spin Densities.
               1          2          3          4          5          6
     1  C   -0.006338   0.008259   0.000569  -0.004619  -0.001753  -0.002294
     2  H    0.008259  -0.001363  -0.000706  -0.001195  -0.000218   0.004257
     3  H    0.000569  -0.000706  -0.001455   0.001058  -0.000062  -0.000201
     4  H   -0.004619  -0.001195   0.001058   0.008183  -0.001508  -0.000307
     5  O   -0.001753  -0.000218  -0.000062  -0.001508   0.085348  -0.048516
     6  O   -0.002294   0.004257  -0.000201  -0.000307  -0.048516   0.507286
     7  H    0.003547  -0.003706  -0.000001   0.001275   0.006380   0.010810
     8  H    0.000358  -0.007260   0.000131   0.001733   0.013462  -0.072619
               7          8
     1  C    0.003547   0.000358
     2  H   -0.003706  -0.007260
     3  H   -0.000001   0.000131
     4  H    0.001275   0.001733
     5  O    0.006380   0.013462
     6  O    0.010810  -0.072619
     7  H   -0.157373   0.007122
     8  H    0.007122   0.737719
 Mulliken charges and spin densities:
               1          2
     1  C   -0.042156  -0.002270
     2  H    0.068090  -0.001933
     3  H    0.097087  -0.000667
     4  H    0.085300   0.004619
     5  O   -0.159052   0.053133
     6  O   -0.183752   0.398416
     7  H    0.192241  -0.131945
     8  H   -0.057759   0.680645
 Sum of Mulliken charges =  -0.00000   1.00000
 Mulliken charges and spin densities with hydrogens summed into heavy atoms:
               1          2
     1  C    0.208321  -0.000250
     5  O   -0.159052   0.053133
     6  O   -0.049270   0.947117
 APT charges:
               1
     1  C    0.435651
     2  H   -0.042502
     3  H    0.005658
     4  H   -0.026104
     5  O   -0.459238
     6  O    0.255014
     7  H   -0.272564
     8  H    0.104085
 Sum of APT charges =  -0.00000
 APT charges with hydrogens summed into heavy atoms:
               1
     1  C    0.372704
     5  O   -0.459238
     6  O    0.086535
 Electronic spatial extent (au):  <R**2>=            187.5227
 Charge=             -0.0000 electrons
 Dipole moment (field-independent basis, Debye):
    X=             -1.4529    Y=              1.4605    Z=              0.0406  Tot=              2.0605
 Quadrupole moment (field-independent basis, Debye-Ang):
   XX=            -17.7332   YY=            -19.9228   ZZ=            -20.2066
   XY=              0.9136   XZ=             -0.6896   YZ=             -0.5411
 Traceless Quadrupole moment (field-independent basis, Debye-Ang):
   XX=              1.5544   YY=             -0.6353   ZZ=             -0.9191
   XY=              0.9136   XZ=             -0.6896   YZ=             -0.5411
 Octapole moment (field-independent basis, Debye-Ang**2):
  XXX=             -1.0726  YYY=             -3.1768  ZZZ=              1.5818  XYY=              0.7147
  XXY=             -0.1509  XXZ=             -0.9902  XZZ=             -0.3766  YZZ=             -1.4718
  YYZ=              0.1269  XYZ=             -0.3456
 Hexadecapole moment (field-independent basis, Debye-Ang**3):
 XXXX=           -147.8425 YYYY=            -57.6199 ZZZZ=            -36.7510 XXXY=             -0.0439
 XXXZ=              4.3703 YYYX=             -3.9458 YYYZ=              1.1020 ZZZX=              1.7768
 ZZZY=              1.7836 XXYY=            -34.9280 XXZZ=            -31.1923 YYZZ=            -16.1036
 XXYZ=              1.3762 YYXZ=              0.8239 ZZXY=             -0.9198
 N-N= 8.746221524709D+01 E-N=-6.248246566347D+02  KE= 1.903226556038D+02
  Exact polarizability:  43.313  13.577  37.669  -5.059  -7.598  25.682
 Approx polarizability:  35.872   8.158  36.640  -0.375  -5.268  27.379
                          Isotropic Fermi Contact Couplings
        Atom                 a.u.       MegaHertz       Gauss      10(-4) cm-1
     1  C(13)             -0.00493      -5.54354      -1.97807      -1.84913
     2  H(1)               0.00450      20.10074       7.17244       6.70488
     3  H(1)              -0.00004      -0.19737      -0.07043      -0.06584
     4  H(1)               0.00149       6.64863       2.37240       2.21774
     5  O(17)              0.02071     -12.55193      -4.47884      -4.18687
     6  O(17)             -0.01284       7.78569       2.77813       2.59703
     7  H(1)              -0.03515    -157.12696     -56.06681     -52.41191
     8  H(1)               0.20826     930.89153     332.16525     310.51199
 --------------------------------------------------------
       Center         ----  Spin Dipole Couplings  ----
                      3XX-RR        3YY-RR        3ZZ-RR
 --------------------------------------------------------
     1   Atom        0.006146      0.004416     -0.010563
     2   Atom        0.007707     -0.000633     -0.007074
     3   Atom        0.007137     -0.003337     -0.003800
     4   Atom        0.005854     -0.004336     -0.001518
     5   Atom       -0.189637      0.249790     -0.060153
     6   Atom       -0.811689      0.711499      0.100191
     7   Atom       -0.085515      0.123242     -0.037727
     8   Atom        0.000890     -0.000002     -0.000887
 --------------------------------------------------------
                        XY            XZ            YZ
 --------------------------------------------------------
     1   Atom       -0.001359     -0.002097     -0.001201
     2   Atom       -0.002909     -0.002075     -0.001809
     3   Atom        0.000457      0.000747     -0.000374
     4   Atom       -0.000685     -0.005688      0.000772
     5   Atom        0.170599     -0.148858     -0.341938
     6   Atom        0.335427     -0.263597     -1.241679
     7   Atom        0.101156     -0.058244     -0.150504
     8   Atom        0.000725      0.001420      0.001111
 --------------------------------------------------------


 ---------------------------------------------------------------------------------
              Anisotropic Spin Dipole Couplings in Principal Axis System
 ---------------------------------------------------------------------------------

       Atom             a.u.   MegaHertz   Gauss  10(-4) cm-1        Axes

              Baa    -0.0109    -1.468    -0.524    -0.490  0.1283  0.0886  0.9878
     1 C(13)  Bbb     0.0040     0.530     0.189     0.177  0.4250  0.8950 -0.1355
              Bcc     0.0070     0.938     0.335     0.313  0.8960 -0.4372 -0.0771
 
              Baa    -0.0080    -4.293    -1.532    -1.432  0.1786  0.2989  0.9374
     2 H(1)   Bbb    -0.0007    -0.379    -0.135    -0.126  0.2328  0.9129 -0.3354
              Bcc     0.0088     4.672     1.667     1.558  0.9560 -0.2781 -0.0935
 
              Baa    -0.0041    -2.175    -0.776    -0.726 -0.0778  0.4878  0.8695
     3 H(1)   Bbb    -0.0031    -1.669    -0.596    -0.557 -0.0032  0.8720 -0.4895
              Bcc     0.0072     3.844     1.372     1.282  0.9970  0.0409  0.0663
 
              Baa    -0.0049    -2.600    -0.928    -0.867  0.3449 -0.5990  0.7226
     4 H(1)   Bbb    -0.0041    -2.211    -0.789    -0.737  0.3387  0.7974  0.4994
              Bcc     0.0090     4.811     1.717     1.605  0.8754 -0.0725 -0.4780
 
              Baa    -0.3028    21.907     7.817     7.307  0.5540  0.3077  0.7736
     5 O(17)  Bbb    -0.2365    17.111     6.106     5.708  0.7788 -0.5200 -0.3509
              Bcc     0.5392   -39.018   -13.923   -13.015  0.2943  0.7968 -0.5277
 
              Baa    -0.8826    63.865    22.789    21.303  0.9848 -0.0931  0.1465
     6 O(17)  Bbb    -0.8729    63.160    22.537    21.068 -0.0571  0.6233  0.7799
              Bcc     1.7555  -127.026   -45.326   -42.371  0.1639  0.7764 -0.6085
 
              Baa    -0.1290   -68.841   -24.564   -22.963 -0.4723  0.5835  0.6607
     7 H(1)   Bbb    -0.1246   -66.466   -23.717   -22.171  0.8192  0.0138  0.5734
              Bcc     0.2536   135.308    48.281    45.134  0.3254  0.8120 -0.4845
 
              Baa    -0.0019    -1.026    -0.366    -0.342 -0.3404 -0.3710  0.8640
     8 H(1)   Bbb    -0.0004    -0.200    -0.072    -0.067 -0.5866  0.8019  0.1132
              Bcc     0.0023     1.227     0.438     0.409  0.7349  0.4683  0.4906
 

 ---------------------------------------------------------------------------------

 Calling FoFJK, ICntrl=  10100127 FMM=F ISym2X=0 I1Cent= 0 IOpClX= 1 NMat=1 NMatS=1 NMatT=0.
 ***** Axes restored to original set *****
 -------------------------------------------------------------------
 Center     Atomic                   Forces (Hartrees/Bohr)
 Number     Number              X              Y              Z
 -------------------------------------------------------------------
      1        6           0.003892662    0.003090503   -0.002329735
      2        1           0.000556413   -0.000588286   -0.000341339
      3        1          -0.000529459    0.000003200   -0.000130757
      4        1           0.000376026    0.000409861    0.000596019
      5        8           0.007179956   -0.007463429    0.007919515
      6        8          -0.009088975    0.001236663   -0.007180901
      7        1          -0.002068032    0.004837944    0.002760920
      8        1          -0.000318590   -0.001526456   -0.001293722
 -------------------------------------------------------------------
 Cartesian Forces:  Max     0.009088975 RMS     0.003963131
 FormGI is forming the generalized inverse of G from B-inverse, IUseBI=4.

 GradGradGradGradGradGradGradGradGradGradGradGradGradGradGradGradGradGrad
 Berny optimization.
 Internal  Forces:  Max     0.013520186 RMS     0.003509018
 Search for a saddle point.
 Step number   1 out of a maximum of  100
 All quantities printed in internal units (Hartrees-Bohrs-Radians)
 Swapping is turned off.
 Second derivative matrix not updated -- analytic derivatives used.
 ITU=  0
     Eigenvalues ---   -0.06012   0.00677   0.01131   0.02457   0.02646
     Eigenvalues ---    0.08421   0.08507   0.13267   0.16358   0.17075
     Eigenvalues ---    0.18260   0.19855   0.28861   0.32730   0.33763
     Eigenvalues ---    0.34724   0.36361   0.44125
 Eigenvectors required to have negative eigenvalues:
                          R7        R6        R5        A8        A7
   1                   -0.73423   0.64704  -0.16946   0.08234   0.04007
                          D4        A3        R4        A1        A6
   1                    0.03742  -0.03600   0.02964   0.01674  -0.01593
 RFO step:  Lambda0=8.245344683D-05 Lambda=-8.44088514D-04.
 Linear search not attempted -- option 19 set.
 Iteration  1 RMS(Cart)=  0.05030105 RMS(Int)=  0.00105972
 Iteration  2 RMS(Cart)=  0.00119648 RMS(Int)=  0.00001178
 Iteration  3 RMS(Cart)=  0.00000164 RMS(Int)=  0.00001174
 Iteration  4 RMS(Cart)=  0.00000000 RMS(Int)=  0.00001174
 Variable       Old X    -DE/DX   Delta X   Delta X   Delta X     New X
                                 (Linear)    (Quad)   (Total)
    R1        2.06657  -0.00071   0.00000  -0.00375  -0.00375   2.06282
    R2        2.05556  -0.00049   0.00000  -0.00074  -0.00074   2.05482
    R3        2.05831  -0.00060   0.00000  -0.00233  -0.00233   2.05598
    R4        2.67190   0.00564   0.00000   0.01503   0.01503   2.68693
    R5        2.59868   0.01352   0.00000   0.04610   0.04610   2.64478
    R6        2.10331   0.00419   0.00000  -0.01727  -0.01727   2.08604
    R7        1.92575  -0.00184   0.00000   0.02144   0.02144   1.94719
    A1        1.92078  -0.00019   0.00000  -0.00085  -0.00084   1.91994
    A2        1.91862  -0.00045   0.00000   0.00144   0.00141   1.92003
    A3        1.91962   0.00073   0.00000   0.00774   0.00773   1.92735
    A4        1.93084  -0.00020   0.00000  -0.00209  -0.00209   1.92875
    A5        1.84415  -0.00068   0.00000  -0.00984  -0.00984   1.83432
    A6        1.92871   0.00081   0.00000   0.00331   0.00330   1.93200
    A7        1.89096   0.00110   0.00000  -0.00701  -0.00701   1.88395
    A8        1.82781   0.00393   0.00000   0.00297   0.00297   1.83078
    A9        3.03443   0.00142   0.00000   0.04232   0.04232   3.07675
   A10        3.13713  -0.00084   0.00000  -0.04269  -0.04269   3.09445
    D1        1.14765   0.00027   0.00000   0.00625   0.00629   1.15394
    D2       -3.06306   0.00004   0.00000   0.00367   0.00366  -3.05939
    D3       -0.97382  -0.00017   0.00000  -0.00285  -0.00287  -0.97669
    D4       -1.48871  -0.00076   0.00000  -0.05775  -0.05775  -1.54645
         Item               Value     Threshold  Converged?
 Maximum Force            0.013520     0.000450     NO 
 RMS     Force            0.003509     0.000300     NO 
 Maximum Displacement     0.171471     0.001800     NO 
 RMS     Displacement     0.050747     0.001200     NO 
 Predicted change in Energy=-3.845593D-04
 GradGradGradGradGradGradGradGradGradGradGradGradGradGradGradGradGradGrad

                          Input orientation:                          
 ---------------------------------------------------------------------
 Center     Atomic      Atomic             Coordinates (Angstroms)
 Number     Number       Type             X           Y           Z
 ---------------------------------------------------------------------
      1          6           0        1.174349    0.246758   -0.119454
      2          1           0        1.058139    1.304100    0.125713
      3          1           0        2.044192   -0.159969    0.390746
      4          1           0        1.271259    0.122681   -1.195979
      5          8           0        0.071235   -0.501587    0.375330
      6          8           0       -1.071775   -0.098708   -0.324654
      7          1           0       -1.472012    0.753317    0.251911
      8          1           0       -1.790557    1.596086    0.751922
 ---------------------------------------------------------------------
                    Distance matrix (angstroms):
                    1          2          3          4          5
     1  C    0.000000
     2  H    1.091597   0.000000
     3  H    1.087363   1.784948   0.000000
     4  H    1.087977   1.785509   1.787460   0.000000
     5  O    1.421862   2.072871   2.002374   2.073350   0.000000
     6  O    2.281781   2.589833   3.197624   2.509587   1.399557
     7  H    2.719879   2.592481   3.635527   3.165379   1.992894
     8  H    3.372039   2.931290   4.233140   3.916626   2.829898
                    6          7          8
     6  O    0.000000
     7  H    1.103886   0.000000
     8  H    2.132602   1.030408   0.000000
 Stoichiometry    CH5O2(2)
 Framework group  C1[X(CH5O2)]
 Deg. of freedom    18
 Full point group                 C1      NOp   1
 Largest Abelian subgroup         C1      NOp   1
 Largest concise Abelian subgroup C1      NOp   1
                         Standard orientation:                         
 ---------------------------------------------------------------------
 Center     Atomic      Atomic             Coordinates (Angstroms)
 Number     Number       Type             X           Y           Z
 ---------------------------------------------------------------------
      1          6           0       -1.164301    0.262784    0.105805
      2          1           0       -1.025078    1.310221   -0.168195
      3          1           0       -2.039298   -0.140448   -0.398321
      4          1           0       -1.269982    0.171094    1.184748
      5          8           0       -0.073859   -0.521420   -0.360728
      6          8           0        1.073060   -0.122221    0.334956
      7          1           0        1.493976    0.704923   -0.262729
      8          1           0        1.832583    1.526631   -0.784153
 ---------------------------------------------------------------------
 Rotational constants (GHZ):          31.9774921           9.5074997           8.7526683
 Standard basis: CC-pVTZ (5D, 7F)
 There are   180 symmetry adapted cartesian basis functions of A   symmetry.
 There are   160 symmetry adapted basis functions of A   symmetry.
   160 basis functions,   241 primitive gaussians,   180 cartesian basis functions
    14 alpha electrons       13 beta electrons
       nuclear repulsion energy        86.6946598276 Hartrees.
 NAtoms=    8 NActive=    8 NUniq=    8 SFac= 1.00D+00 NAtFMM=   60 NAOKFM=F Big=F
 Integral buffers will be    131072 words long.
 Raffenetti 2 integral format.
 Two-electron integral symmetry is turned on.
 Nuclear repulsion after empirical dispersion term =       86.6922999218 Hartrees.
 One-electron integrals computed using PRISM.
 NBasis=   160 RedAO= T EigKep=  1.84D-03  NBF=   160
 NBsUse=   160 1.00D-06 EigRej= -1.00D+00 NBFU=   160
 Initial guess from the checkpoint file:  "/localscratch/341085/Gau-18240.chk"
 B after Tr=    -0.000000    0.000000    0.000000
         Rot=    0.999876    0.014101    0.002535    0.006574 Ang=   1.81 deg.
 Initial guess <Sx>= 0.0000 <Sy>= 0.0000 <Sz>= 0.5000 <S**2>= 0.7694 S= 0.5097
 ExpMin= 1.03D-01 ExpMax= 1.53D+04 ExpMxC= 5.22D+02 IAcc=3 IRadAn=         5 AccDes= 0.00D+00
 Harris functional with IExCor=  419 and IRadAn=       5 diagonalized for initial guess.
 HarFok:  IExCor=  419 AccDes= 0.00D+00 IRadAn=         5 IDoV= 1 UseB2=F ITyADJ=14
 ICtDFT=  3500011 ScaDFX=  1.000000  1.000000  1.000000  1.000000
 FoFCou: FMM=F IPFlag=           0 FMFlag=      100000 FMFlg1=           0
         NFxFlg=           0 DoJE=T BraDBF=F KetDBF=T FulRan=T
         wScrn=  0.000000 ICntrl=       500 IOpCl=  0 I1Cent=   200000004 NGrid=           0
         NMat0=    1 NMatS0=      1 NMatT0=    0 NMatD0=    1 NMtDS0=    0 NMtDT0=    0
 Petite list used in FoFCou.
 Keep R1 and R2 ints in memory in canonical form, NReq=206286096.
 Requested convergence on RMS density matrix=1.00D-08 within 128 cycles.
 Requested convergence on MAX density matrix=1.00D-06.
 Requested convergence on             energy=1.00D-06.
 No special actions if energy rises.
 Integral accuracy reduced to 1.0D-05 until final iterations.
 Initial convergence to 1.0D-05 achieved.  Increase integral accuracy.
 SCF Done:  E(UB2PLYPD3) =  -191.062524681     A.U. after   16 cycles
            NFock= 16  Conv=0.47D-08     -V/T= 2.0041
 <Sx>= 0.0000 <Sy>= 0.0000 <Sz>= 0.5000 <S**2>= 0.7685 S= 0.5092
 <L.S>=  0.00000000000    
 Annihilation of the first spin contaminant:
 S**2 before annihilation     0.7685,   after     0.7501
 DoSCS=T DFT=T ScalE2(SS,OS)=  0.270000  0.270000
 ExpMin= 1.03D-01 ExpMax= 1.53D+04 ExpMxC= 5.22D+02 IAcc=3 IRadAn=         5 AccDes= 0.00D+00
 HarFok:  IExCor=  205 AccDes= 0.00D+00 IRadAn=         5 IDoV=-2 UseB2=F ITyADJ=14
 ICtDFT= 12500011 ScaDFX=  1.000000  1.000000  1.000000  1.000000
 Range of M.O.s used for correlation:     4   160
 NBasis=   160 NAE=    14 NBE=    13 NFC=     3 NFV=     0
 NROrb=    157 NOA=    11 NOB=    10 NVA=   146 NVB=   147

 **** Warning!!: The largest alpha MO coefficient is  0.11983690D+02


 **** Warning!!: The largest beta MO coefficient is  0.11983595D+02

 DoSCS=T DFT=T ScalE2(SS,OS)=  0.270000  0.270000
 Fully direct method using O(ONN) memory.
 JobTyp=2 Pass  1:  I=   4 to  14 NPSUse= 40 ParTrn=T ParDer=T DoDerP=T.
 JobTyp=3 Pass  1:  I=   4 to  13 NPSUse= 40 ParTrn=T ParDer=T DoDerP=T.
 Spin components of T(2) and E(2):
     alpha-alpha T2 =       0.3306999659D-01 E2=     -0.2706574620D-01
     alpha-beta  T2 =       0.2122466916D+00 E2=     -0.1684836575D+00
     beta-beta   T2 =       0.3853092245D-01 E2=     -0.2745287721D-01
 (S**2,0)=  0.76852D+00           (S**2,1)=  0.74433D+00
 Scaling Projection term by:   0.270000
 E(PUHF)=      -0.19106818151D+03        E(PMP2)=      -0.19128605925D+03
 E2(B2PLYPD3) =    -0.2230022810D+00 E(B2PLYPD3) =    -0.19128552696165D+03
          IDoAtm=11111111
          Differentiating once with respect to electric field.
                with respect to dipole field.
          Differentiating once with respect to nuclear coordinates.
 Keep R1 and R2 ints in memory in canonical form, NReq=206291724.
          There are     1 degrees of freedom in the 1st order CPHF.  IDoFFX=0 NUNeed=     1.
 LinEq1:  Iter=  0 NonCon=     1 RMS=1.47D-03 Max=6.30D-02 NDo=     1
 AX will form     1 AO Fock derivatives at one time.
 LinEq1:  Iter=  1 NonCon=     1 RMS=3.88D-04 Max=5.77D-03 NDo=     1
 LinEq1:  Iter=  2 NonCon=     1 RMS=2.57D-04 Max=4.78D-03 NDo=     1
 LinEq1:  Iter=  3 NonCon=     1 RMS=1.31D-04 Max=2.02D-03 NDo=     1
 LinEq1:  Iter=  4 NonCon=     1 RMS=6.95D-05 Max=8.61D-04 NDo=     1
 LinEq1:  Iter=  5 NonCon=     1 RMS=3.68D-05 Max=5.15D-04 NDo=     1
 LinEq1:  Iter=  6 NonCon=     1 RMS=2.47D-05 Max=4.76D-04 NDo=     1
 LinEq1:  Iter=  7 NonCon=     1 RMS=8.16D-06 Max=1.13D-04 NDo=     1
 LinEq1:  Iter=  8 NonCon=     1 RMS=2.81D-06 Max=4.00D-05 NDo=     1
 LinEq1:  Iter=  9 NonCon=     1 RMS=8.46D-07 Max=1.35D-05 NDo=     1
 LinEq1:  Iter= 10 NonCon=     1 RMS=2.29D-07 Max=2.98D-06 NDo=     1
 LinEq1:  Iter= 11 NonCon=     1 RMS=6.63D-08 Max=1.23D-06 NDo=     1
 LinEq1:  Iter= 12 NonCon=     1 RMS=1.65D-08 Max=4.83D-07 NDo=     1
 LinEq1:  Iter= 13 NonCon=     1 RMS=4.86D-09 Max=1.51D-07 NDo=     1
 LinEq1:  Iter= 14 NonCon=     1 RMS=1.45D-09 Max=2.83D-08 NDo=     1
 LinEq1:  Iter= 15 NonCon=     1 RMS=3.79D-10 Max=4.12D-09 NDo=     1
 LinEq1:  Iter= 16 NonCon=     0 RMS=9.73D-11 Max=9.90D-10 NDo=     1
 Linear equations converged to 1.000D-10 1.000D-09 after    16 iterations.
 End of Minotr F.D. properties file   721 does not exist.
 End of Minotr F.D. properties file   722 does not exist.
 End of Minotr F.D. properties file   788 does not exist.
 Calling FoFJK, ICntrl=  10002127 FMM=F ISym2X=0 I1Cent= 0 IOpClX= 1 NMat=1 NMatS=1 NMatT=0.
 ***** Axes restored to original set *****
 -------------------------------------------------------------------
 Center     Atomic                   Forces (Hartrees/Bohr)
 Number     Number              X              Y              Z
 -------------------------------------------------------------------
      1        6           0.000158310   -0.000020990   -0.000071655
      2        1          -0.000042915    0.000013569    0.000019415
      3        1          -0.000003671   -0.000011315    0.000000529
      4        1          -0.000008042    0.000007334   -0.000007768
      5        8           0.000716926   -0.000269436    0.000560427
      6        8          -0.000709512    0.000013707   -0.000735199
      7        1          -0.000028568    0.000243969    0.000246507
      8        1          -0.000082530    0.000023163   -0.000012256
 -------------------------------------------------------------------
 Cartesian Forces:  Max     0.000735199 RMS     0.000296278

 GradGradGradGradGradGradGradGradGradGradGradGradGradGradGradGradGradGrad
 Berny optimization.
 FormGI is forming the generalized inverse of G from B-inverse, IUseBI=4.
 Internal  Forces:  Max     0.001000016 RMS     0.000238000
 Search for a saddle point.
 Step number   2 out of a maximum of  100
 All quantities printed in internal units (Hartrees-Bohrs-Radians)
 Swapping is turned off.
 Update second derivatives using D2CorX and points    1    2
 ITU=  0  0
     Eigenvalues ---   -0.05941   0.00677   0.01191   0.02481   0.02659
     Eigenvalues ---    0.08422   0.08507   0.13267   0.16334   0.17075
     Eigenvalues ---    0.18257   0.19820   0.28540   0.32703   0.33731
     Eigenvalues ---    0.34704   0.36317   0.43636
 Eigenvectors required to have negative eigenvalues:
                          R7        R6        R5        A8        A7
   1                   -0.73565   0.64471  -0.17400   0.08310   0.04026
                          A3        R4        D4        A1        A6
   1                   -0.03475   0.03006   0.02689   0.01634  -0.01602
 RFO step:  Lambda0=3.583089481D-08 Lambda=-5.21037398D-06.
 Linear search not attempted -- option 19 set.
 Iteration  1 RMS(Cart)=  0.00441934 RMS(Int)=  0.00001034
 Iteration  2 RMS(Cart)=  0.00001103 RMS(Int)=  0.00000001
 Iteration  3 RMS(Cart)=  0.00000000 RMS(Int)=  0.00000001
 Variable       Old X    -DE/DX   Delta X   Delta X   Delta X     New X
                                 (Linear)    (Quad)   (Total)
    R1        2.06282   0.00002   0.00000   0.00000   0.00000   2.06282
    R2        2.05482   0.00000   0.00000   0.00004   0.00004   2.05486
    R3        2.05598   0.00001   0.00000  -0.00002  -0.00002   2.05596
    R4        2.68693   0.00010   0.00000   0.00028   0.00028   2.68721
    R5        2.64478   0.00100   0.00000   0.00344   0.00344   2.64822
    R6        2.08604   0.00037   0.00000   0.00072   0.00072   2.08676
    R7        1.94719   0.00004   0.00000   0.00061   0.00061   1.94780
    A1        1.91994   0.00003   0.00000   0.00015   0.00015   1.92009
    A2        1.92003   0.00001   0.00000   0.00013   0.00013   1.92017
    A3        1.92735  -0.00007   0.00000  -0.00004  -0.00004   1.92731
    A4        1.92875   0.00001   0.00000  -0.00001  -0.00001   1.92874
    A5        1.83432   0.00000   0.00000  -0.00033  -0.00033   1.83399
    A6        1.93200   0.00001   0.00000   0.00008   0.00008   1.93208
    A7        1.88395   0.00005   0.00000  -0.00057  -0.00057   1.88338
    A8        1.83078   0.00004   0.00000  -0.00100  -0.00100   1.82978
    A9        3.07675   0.00014   0.00000   0.00466   0.00466   3.08141
   A10        3.09445  -0.00006   0.00000  -0.00410  -0.00410   3.09035
    D1        1.15394  -0.00000   0.00000   0.00081   0.00081   1.15475
    D2       -3.05939   0.00000   0.00000   0.00078   0.00078  -3.05861
    D3       -0.97669   0.00002   0.00000   0.00062   0.00062  -0.97607
    D4       -1.54645  -0.00010   0.00000  -0.00595  -0.00595  -1.55240
         Item               Value     Threshold  Converged?
 Maximum Force            0.001000     0.000450     NO 
 RMS     Force            0.000238     0.000300     YES
 Maximum Displacement     0.015079     0.001800     NO 
 RMS     Displacement     0.004422     0.001200     NO 
 Predicted change in Energy=-2.587271D-06
 GradGradGradGradGradGradGradGradGradGradGradGradGradGradGradGradGradGrad

                          Input orientation:                          
 ---------------------------------------------------------------------
 Center     Atomic      Atomic             Coordinates (Angstroms)
 Number     Number       Type             X           Y           Z
 ---------------------------------------------------------------------
      1          6           0        1.176240    0.246185   -0.119971
      2          1           0        1.061778    1.303939    0.124242
      3          1           0        2.045510   -0.161628    0.390384
      4          1           0        1.272579    0.120799   -1.196386
      5          8           0        0.072093   -0.500019    0.376169
      6          8           0       -1.071505   -0.095752   -0.325694
      7          1           0       -1.473328    0.754009    0.253830
      8          1           0       -1.798536    1.595146    0.752960
 ---------------------------------------------------------------------
                    Distance matrix (angstroms):
                    1          2          3          4          5
     1  C    0.000000
     2  H    1.091597   0.000000
     3  H    1.087384   1.785062   0.000000
     4  H    1.087967   1.785585   1.787464   0.000000
     5  O    1.422011   2.072970   2.002270   2.073526   0.000000
     6  O    2.282893   2.590844   3.198889   2.509926   1.401377
     7  H    2.723567   2.597301   3.638579   3.169240   1.993960
     8  H    3.380976   2.943040   4.241982   3.924971   2.833891
                    6          7          8
     6  O    0.000000
     7  H    1.104266   0.000000
     8  H    2.133355   1.030729   0.000000
 Stoichiometry    CH5O2(2)
 Framework group  C1[X(CH5O2)]
 Deg. of freedom    18
 Full point group                 C1      NOp   1
 Largest Abelian subgroup         C1      NOp   1
 Largest concise Abelian subgroup C1      NOp   1
                         Standard orientation:                         
 ---------------------------------------------------------------------
 Center     Atomic      Atomic             Coordinates (Angstroms)
 Number     Number       Type             X           Y           Z
 ---------------------------------------------------------------------
      1          6           0       -1.165137    0.263517    0.105357
      2          1           0       -1.025624    1.310705   -0.169446
      3          1           0       -2.040152   -0.140056   -0.398509
      4          1           0       -1.270821    0.172535    1.184350
      5          8           0       -0.074896   -0.521419   -0.360869
      6          8           0        1.073125   -0.121729    0.336378
      7          1           0        1.497331    0.701231   -0.265443
      8          1           0        1.844260    1.519670   -0.787171
 ---------------------------------------------------------------------
 Rotational constants (GHZ):          31.9789499           9.4889948           8.7412537
 Standard basis: CC-pVTZ (5D, 7F)
 There are   180 symmetry adapted cartesian basis functions of A   symmetry.
 There are   160 symmetry adapted basis functions of A   symmetry.
   160 basis functions,   241 primitive gaussians,   180 cartesian basis functions
    14 alpha electrons       13 beta electrons
       nuclear repulsion energy        86.6428552038 Hartrees.
 NAtoms=    8 NActive=    8 NUniq=    8 SFac= 1.00D+00 NAtFMM=   60 NAOKFM=F Big=F
 Integral buffers will be    131072 words long.
 Raffenetti 2 integral format.
 Two-electron integral symmetry is turned on.
 Nuclear repulsion after empirical dispersion term =       86.6404976533 Hartrees.
 One-electron integrals computed using PRISM.
 NBasis=   160 RedAO= T EigKep=  1.84D-03  NBF=   160
 NBsUse=   160 1.00D-06 EigRej= -1.00D+00 NBFU=   160
 Initial guess from the checkpoint file:  "/localscratch/341085/Gau-18240.chk"
 B after Tr=     0.000000   -0.000000   -0.000000
         Rot=    0.999999    0.000837    0.000234    0.000602 Ang=   0.12 deg.
 Initial guess <Sx>= 0.0000 <Sy>= 0.0000 <Sz>= 0.5000 <S**2>= 0.7685 S= 0.5092
 Keep R1 and R2 ints in memory in canonical form, NReq=206286096.
 Requested convergence on RMS density matrix=1.00D-08 within 128 cycles.
 Requested convergence on MAX density matrix=1.00D-06.
 Requested convergence on             energy=1.00D-06.
 No special actions if energy rises.
 SCF Done:  E(UB2PLYPD3) =  -191.062472728     A.U. after   11 cycles
            NFock= 11  Conv=0.97D-08     -V/T= 2.0042
 <Sx>= 0.0000 <Sy>= 0.0000 <Sz>= 0.5000 <S**2>= 0.7686 S= 0.5092
 <L.S>=  0.00000000000    
 Annihilation of the first spin contaminant:
 S**2 before annihilation     0.7686,   after     0.7501
 DoSCS=T DFT=T ScalE2(SS,OS)=  0.270000  0.270000
 ExpMin= 1.03D-01 ExpMax= 1.53D+04 ExpMxC= 5.22D+02 IAcc=3 IRadAn=         5 AccDes= 0.00D+00
 HarFok:  IExCor=  205 AccDes= 0.00D+00 IRadAn=         5 IDoV=-2 UseB2=F ITyADJ=14
 ICtDFT= 12500011 ScaDFX=  1.000000  1.000000  1.000000  1.000000
 Range of M.O.s used for correlation:     4   160
 NBasis=   160 NAE=    14 NBE=    13 NFC=     3 NFV=     0
 NROrb=    157 NOA=    11 NOB=    10 NVA=   146 NVB=   147

 **** Warning!!: The largest alpha MO coefficient is  0.11983283D+02


 **** Warning!!: The largest beta MO coefficient is  0.11983190D+02

 DoSCS=T DFT=T ScalE2(SS,OS)=  0.270000  0.270000
 Fully direct method using O(ONN) memory.
 JobTyp=2 Pass  1:  I=   4 to  14 NPSUse= 40 ParTrn=T ParDer=T DoDerP=T.
 JobTyp=3 Pass  1:  I=   4 to  13 NPSUse= 40 ParTrn=T ParDer=T DoDerP=T.
 Spin components of T(2) and E(2):
     alpha-alpha T2 =       0.3310494680D-01 E2=     -0.2707211275D-01
     alpha-beta  T2 =       0.2124880571D+00 E2=     -0.1685324899D+00
     beta-beta   T2 =       0.3854818455D-01 E2=     -0.2745240145D-01
 (S**2,0)=  0.76855D+00           (S**2,1)=  0.74435D+00
 Scaling Projection term by:   0.270000
 E(PUHF)=      -0.19106813123D+03        E(PMP2)=      -0.19128606321D+03
 E2(B2PLYPD3) =    -0.2230570041D+00 E(B2PLYPD3) =    -0.19128552973222D+03
          IDoAtm=11111111
          Differentiating once with respect to electric field.
                with respect to dipole field.
          Differentiating once with respect to nuclear coordinates.
 Keep R1 and R2 ints in memory in canonical form, NReq=206291724.
          There are     1 degrees of freedom in the 1st order CPHF.  IDoFFX=0 NUNeed=     1.
 LinEq1:  Iter=  0 NonCon=     1 RMS=1.47D-03 Max=6.31D-02 NDo=     1
 AX will form     1 AO Fock derivatives at one time.
 LinEq1:  Iter=  1 NonCon=     1 RMS=3.88D-04 Max=5.76D-03 NDo=     1
 LinEq1:  Iter=  2 NonCon=     1 RMS=2.56D-04 Max=4.75D-03 NDo=     1
 LinEq1:  Iter=  3 NonCon=     1 RMS=1.31D-04 Max=2.06D-03 NDo=     1
 LinEq1:  Iter=  4 NonCon=     1 RMS=6.99D-05 Max=8.72D-04 NDo=     1
 LinEq1:  Iter=  5 NonCon=     1 RMS=3.72D-05 Max=5.22D-04 NDo=     1
 LinEq1:  Iter=  6 NonCon=     1 RMS=2.51D-05 Max=4.83D-04 NDo=     1
 LinEq1:  Iter=  7 NonCon=     1 RMS=8.24D-06 Max=1.13D-04 NDo=     1
 LinEq1:  Iter=  8 NonCon=     1 RMS=2.84D-06 Max=4.08D-05 NDo=     1
 LinEq1:  Iter=  9 NonCon=     1 RMS=8.54D-07 Max=1.35D-05 NDo=     1
 LinEq1:  Iter= 10 NonCon=     1 RMS=2.31D-07 Max=2.95D-06 NDo=     1
 LinEq1:  Iter= 11 NonCon=     1 RMS=6.69D-08 Max=1.25D-06 NDo=     1
 LinEq1:  Iter= 12 NonCon=     1 RMS=1.66D-08 Max=4.85D-07 NDo=     1
 LinEq1:  Iter= 13 NonCon=     1 RMS=4.91D-09 Max=1.49D-07 NDo=     1
 LinEq1:  Iter= 14 NonCon=     1 RMS=1.45D-09 Max=2.75D-08 NDo=     1
 LinEq1:  Iter= 15 NonCon=     1 RMS=3.80D-10 Max=4.13D-09 NDo=     1
 LinEq1:  Iter= 16 NonCon=     0 RMS=9.77D-11 Max=9.99D-10 NDo=     1
 Linear equations converged to 1.000D-10 1.000D-09 after    16 iterations.
 End of Minotr F.D. properties file   721 does not exist.
 End of Minotr F.D. properties file   722 does not exist.
 End of Minotr F.D. properties file   788 does not exist.
 Calling FoFJK, ICntrl=  10002127 FMM=F ISym2X=0 I1Cent= 0 IOpClX= 1 NMat=1 NMatS=1 NMatT=0.
 ***** Axes restored to original set *****
 -------------------------------------------------------------------
 Center     Atomic                   Forces (Hartrees/Bohr)
 Number     Number              X              Y              Z
 -------------------------------------------------------------------
      1        6          -0.000003081   -0.000008681    0.000001517
      2        1          -0.000003222   -0.000000747    0.000000832
      3        1           0.000000239    0.000000024   -0.000000293
      4        1          -0.000000191    0.000000279   -0.000000745
      5        8           0.000069493   -0.000014286    0.000037414
      6        8          -0.000068613    0.000035323   -0.000031200
      7        1           0.000012549   -0.000017419   -0.000011413
      8        1          -0.000007174    0.000005508    0.000003887
 -------------------------------------------------------------------
 Cartesian Forces:  Max     0.000069493 RMS     0.000024281

 GradGradGradGradGradGradGradGradGradGradGradGradGradGradGradGradGradGrad
 Berny optimization.
 FormGI is forming the generalized inverse of G from B-inverse, IUseBI=4.
 Internal  Forces:  Max     0.000077653 RMS     0.000017762
 Search for a saddle point.
 Step number   3 out of a maximum of  100
 All quantities printed in internal units (Hartrees-Bohrs-Radians)
 Swapping is turned off.
 Update second derivatives using D2CorX and points    1    2    3
 ITU=  0  0  0
     Eigenvalues ---   -0.06009   0.00681   0.01251   0.02474   0.02697
     Eigenvalues ---    0.08422   0.08507   0.13266   0.16297   0.17059
     Eigenvalues ---    0.18255   0.19835   0.28402   0.32675   0.33700
     Eigenvalues ---    0.34700   0.36271   0.43477
 Eigenvectors required to have negative eigenvalues:
                          R7        R6        R5        A8        D4
   1                   -0.73368   0.64351  -0.18007   0.08549   0.04918
                          A7        A3        R4        A10       A1
   1                    0.04163  -0.03499   0.02997   0.01947   0.01608
 RFO step:  Lambda0=1.487384050D-08 Lambda=-2.51689648D-08.
 Linear search not attempted -- option 19 set.
 Iteration  1 RMS(Cart)=  0.00030459 RMS(Int)=  0.00000006
 Iteration  2 RMS(Cart)=  0.00000007 RMS(Int)=  0.00000000
 Variable       Old X    -DE/DX   Delta X   Delta X   Delta X     New X
                                 (Linear)    (Quad)   (Total)
    R1        2.06282  -0.00000   0.00000  -0.00001  -0.00001   2.06281
    R2        2.05486   0.00000   0.00000   0.00000   0.00000   2.05486
    R3        2.05596   0.00000   0.00000  -0.00000  -0.00000   2.05596
    R4        2.68721  -0.00001   0.00000  -0.00002  -0.00002   2.68719
    R5        2.64822   0.00008   0.00000   0.00017   0.00017   2.64839
    R6        2.08676  -0.00001   0.00000   0.00031   0.00031   2.08707
    R7        1.94780   0.00001   0.00000  -0.00047  -0.00047   1.94732
    A1        1.92009   0.00000   0.00000   0.00001   0.00001   1.92010
    A2        1.92017   0.00000   0.00000   0.00001   0.00001   1.92017
    A3        1.92731  -0.00001   0.00000  -0.00002  -0.00002   1.92729
    A4        1.92874   0.00000   0.00000  -0.00000  -0.00000   1.92873
    A5        1.83399   0.00000   0.00000  -0.00000  -0.00000   1.83398
    A6        1.93208   0.00000   0.00000   0.00001   0.00001   1.93209
    A7        1.88338  -0.00000   0.00000  -0.00002  -0.00002   1.88336
    A8        1.82978   0.00001   0.00000  -0.00000  -0.00000   1.82978
    A9        3.08141   0.00001   0.00000   0.00041   0.00041   3.08182
   A10        3.09035  -0.00000   0.00000  -0.00003  -0.00003   3.09032
    D1        1.15475  -0.00000   0.00000   0.00000   0.00000   1.15475
    D2       -3.05861  -0.00000   0.00000   0.00000   0.00000  -3.05861
    D3       -0.97607   0.00000   0.00000   0.00000   0.00000  -0.97607
    D4       -1.55240  -0.00001   0.00000  -0.00028  -0.00028  -1.55269
         Item               Value     Threshold  Converged?
 Maximum Force            0.000078     0.000450     YES
 RMS     Force            0.000018     0.000300     YES
 Maximum Displacement     0.000943     0.001800     YES
 RMS     Displacement     0.000305     0.001200     YES
 Predicted change in Energy=-5.147560D-09
 Optimization completed.
    -- Stationary point found.
                           ----------------------------
                           !   Optimized Parameters   !
                           ! (Angstroms and Degrees)  !
 --------------------------                            --------------------------
 ! Name  Definition              Value          Derivative Info.                !
 --------------------------------------------------------------------------------
 ! R1    R(1,2)                  1.0916         -DE/DX =    0.0                 !
 ! R2    R(1,3)                  1.0874         -DE/DX =    0.0                 !
 ! R3    R(1,4)                  1.088          -DE/DX =    0.0                 !
 ! R4    R(1,5)                  1.422          -DE/DX =    0.0                 !
 ! R5    R(5,6)                  1.4014         -DE/DX =    0.0001              !
 ! R6    R(6,7)                  1.1043         -DE/DX =    0.0                 !
 ! R7    R(7,8)                  1.0307         -DE/DX =    0.0                 !
 ! A1    A(2,1,3)              110.0131         -DE/DX =    0.0                 !
 ! A2    A(2,1,4)              110.0174         -DE/DX =    0.0                 !
 ! A3    A(2,1,5)              110.4267         -DE/DX =    0.0                 !
 ! A4    A(3,1,4)              110.5086         -DE/DX =    0.0                 !
 ! A5    A(3,1,5)              105.0797         -DE/DX =    0.0                 !
 ! A6    A(4,1,5)              110.7            -DE/DX =    0.0                 !
 ! A7    A(1,5,6)              107.9097         -DE/DX =    0.0                 !
 ! A8    A(5,6,7)              104.8386         -DE/DX =    0.0                 !
 ! A9    L(6,7,8,2,-1)         176.552          -DE/DX =    0.0                 !
 ! A10   L(6,7,8,2,-2)         177.064          -DE/DX =    0.0                 !
 ! D1    D(2,1,5,6)             66.1623         -DE/DX =    0.0                 !
 ! D2    D(3,1,5,6)           -175.2456         -DE/DX =    0.0                 !
 ! D3    D(4,1,5,6)            -55.9249         -DE/DX =    0.0                 !
 ! D4    D(1,5,6,7)            -88.9461         -DE/DX =    0.0                 !
 --------------------------------------------------------------------------------
 GradGradGradGradGradGradGradGradGradGradGradGradGradGradGradGradGradGrad

                          Input orientation:                          
 ---------------------------------------------------------------------
 Center     Atomic      Atomic             Coordinates (Angstroms)
 Number     Number       Type             X           Y           Z
 ---------------------------------------------------------------------
      1          6           0        1.176240    0.246185   -0.119971
      2          1           0        1.061778    1.303939    0.124242
      3          1           0        2.045510   -0.161628    0.390384
      4          1           0        1.272579    0.120799   -1.196386
      5          8           0        0.072093   -0.500019    0.376169
      6          8           0       -1.071505   -0.095752   -0.325694
      7          1           0       -1.473328    0.754009    0.253830
      8          1           0       -1.798536    1.595146    0.752960
 ---------------------------------------------------------------------
                    Distance matrix (angstroms):
                    1          2          3          4          5
     1  C    0.000000
     2  H    1.091597   0.000000
     3  H    1.087384   1.785062   0.000000
     4  H    1.087967   1.785585   1.787464   0.000000
     5  O    1.422011   2.072970   2.002270   2.073526   0.000000
     6  O    2.282893   2.590844   3.198889   2.509926   1.401377
     7  H    2.723567   2.597301   3.638579   3.169240   1.993960
     8  H    3.380976   2.943040   4.241982   3.924971   2.833891
                    6          7          8
     6  O    0.000000
     7  H    1.104266   0.000000
     8  H    2.133355   1.030729   0.000000
 Stoichiometry    CH5O2(2)
 Framework group  C1[X(CH5O2)]
 Deg. of freedom    18
 Full point group                 C1      NOp   1
 Largest Abelian subgroup         C1      NOp   1
 Largest concise Abelian subgroup C1      NOp   1
                         Standard orientation:                         
 ---------------------------------------------------------------------
 Center     Atomic      Atomic             Coordinates (Angstroms)
 Number     Number       Type             X           Y           Z
 ---------------------------------------------------------------------
      1          6           0       -1.165137    0.263517    0.105357
      2          1           0       -1.025624    1.310705   -0.169446
      3          1           0       -2.040152   -0.140056   -0.398509
      4          1           0       -1.270821    0.172535    1.184350
      5          8           0       -0.074896   -0.521419   -0.360869
      6          8           0        1.073125   -0.121729    0.336378
      7          1           0        1.497331    0.701231   -0.265443
      8          1           0        1.844260    1.519670   -0.787171
 ---------------------------------------------------------------------
 Rotational constants (GHZ):          31.9789499           9.4889948           8.7412537

 **********************************************************************

            Population analysis using the SCF Density.

 **********************************************************************

 Orbital symmetries:
 Alpha Orbitals:
       Occupied  (A) (A) (A) (A) (A) (A) (A) (A) (A) (A) (A) (A)
                 (A) (A)
       Virtual   (A) (A) (A) (A) (A) (A) (A) (A) (A) (A) (A) (A)
                 (A) (A) (A) (A) (A) (A) (A) (A) (A) (A) (A) (A)
                 (A) (A) (A) (A) (A) (A) (A) (A) (A) (A) (A) (A)
                 (A) (A) (A) (A) (A) (A) (A) (A) (A) (A) (A) (A)
                 (A) (A) (A) (A) (A) (A) (A) (A) (A) (A) (A) (A)
                 (A) (A) (A) (A) (A) (A) (A) (A) (A) (A) (A) (A)
                 (A) (A) (A) (A) (A) (A) (A) (A) (A) (A) (A) (A)
                 (A) (A) (A) (A) (A) (A) (A) (A) (A) (A) (A) (A)
                 (A) (A) (A) (A) (A) (A) (A) (A) (A) (A) (A) (A)
                 (A) (A) (A) (A) (A) (A) (A) (A) (A) (A) (A) (A)
                 (A) (A) (A) (A) (A) (A) (A) (A) (A) (A) (A) (A)
                 (A) (A) (A) (A) (A) (A) (A) (A) (A) (A) (A) (A)
                 (A) (A)
 Beta  Orbitals:
       Occupied  (A) (A) (A) (A) (A) (A) (A) (A) (A) (A) (A) (A)
                 (A)
       Virtual   (A) (A) (A) (A) (A) (A) (A) (A) (A) (A) (A) (A)
                 (A) (A) (A) (A) (A) (A) (A) (A) (A) (A) (A) (A)
                 (A) (A) (A) (A) (A) (A) (A) (A) (A) (A) (A) (A)
                 (A) (A) (A) (A) (A) (A) (A) (A) (A) (A) (A) (A)
                 (A) (A) (A) (A) (A) (A) (A) (A) (A) (A) (A) (A)
                 (A) (A) (A) (A) (A) (A) (A) (A) (A) (A) (A) (A)
                 (A) (A) (A) (A) (A) (A) (A) (A) (A) (A) (A) (A)
                 (A) (A) (A) (A) (A) (A) (A) (A) (A) (A) (A) (A)
                 (A) (A) (A) (A) (A) (A) (A) (A) (A) (A) (A) (A)
                 (A) (A) (A) (A) (A) (A) (A) (A) (A) (A) (A) (A)
                 (A) (A) (A) (A) (A) (A) (A) (A) (A) (A) (A) (A)
                 (A) (A) (A) (A) (A) (A) (A) (A) (A) (A) (A) (A)
                 (A) (A) (A)
 The electronic state is 2-A.
 Alpha  occ. eigenvalues --  -19.81095 -19.80391 -10.67098  -1.29899  -1.04231
 Alpha  occ. eigenvalues --   -0.79191  -0.64778  -0.57413  -0.56097  -0.51837
 Alpha  occ. eigenvalues --   -0.45691  -0.41685  -0.38672  -0.34699
 Alpha virt. eigenvalues --    0.08805   0.11686   0.14525   0.14990   0.17500
 Alpha virt. eigenvalues --    0.20778   0.28846   0.30436   0.32407   0.42407
 Alpha virt. eigenvalues --    0.48608   0.49007   0.50336   0.51202   0.53103
 Alpha virt. eigenvalues --    0.53970   0.56016   0.57837   0.66645   0.67608
 Alpha virt. eigenvalues --    0.70118   0.77091   0.80386   0.83471   0.89895
 Alpha virt. eigenvalues --    0.92614   0.95273   1.00370   1.02641   1.05567
 Alpha virt. eigenvalues --    1.07302   1.13118   1.14597   1.16746   1.19028
 Alpha virt. eigenvalues --    1.30301   1.35342   1.37513   1.38328   1.45054
 Alpha virt. eigenvalues --    1.51039   1.60876   1.65131   1.76961   1.86423
 Alpha virt. eigenvalues --    1.96102   2.00328   2.05112   2.06916   2.10326
 Alpha virt. eigenvalues --    2.17993   2.22345   2.31901   2.35984   2.41904
 Alpha virt. eigenvalues --    2.47659   2.49369   2.56866   2.70730   2.82002
 Alpha virt. eigenvalues --    2.88679   2.91083   2.95377   3.01129   3.01759
 Alpha virt. eigenvalues --    3.06514   3.10102   3.11639   3.13824   3.15145
 Alpha virt. eigenvalues --    3.18412   3.25086   3.29003   3.39715   3.40993
 Alpha virt. eigenvalues --    3.47480   3.50708   3.51803   3.55601   3.57679
 Alpha virt. eigenvalues --    3.58300   3.61496   3.62182   3.64793   3.73302
 Alpha virt. eigenvalues --    3.82133   3.83028   3.85226   3.86466   3.92068
 Alpha virt. eigenvalues --    3.94984   3.95473   3.99937   4.08572   4.09782
 Alpha virt. eigenvalues --    4.16554   4.17641   4.23211   4.33940   4.34190
 Alpha virt. eigenvalues --    4.43445   4.51415   4.66409   4.69295   4.71476
 Alpha virt. eigenvalues --    4.81120   4.81958   4.92305   4.95952   4.98537
 Alpha virt. eigenvalues --    5.01356   5.05979   5.22962   5.29227   5.29938
 Alpha virt. eigenvalues --    5.33922   5.36169   5.37723   5.38311   5.45953
 Alpha virt. eigenvalues --    5.66577   5.77056   5.88519   5.91467   5.94633
 Alpha virt. eigenvalues --    6.06958   6.09503   6.24670   6.36234   6.48089
 Alpha virt. eigenvalues --    6.50928   6.61317   6.70602   6.75182   6.80802
 Alpha virt. eigenvalues --    6.93390   7.02585   7.05646   7.10197   7.40606
 Alpha virt. eigenvalues --    7.41979   7.59537   7.74128   9.97402  10.95968
 Alpha virt. eigenvalues --   13.35648
  Beta  occ. eigenvalues --  -19.80204 -19.79635 -10.67105  -1.27998  -1.01558
  Beta  occ. eigenvalues --   -0.78742  -0.60638  -0.55966  -0.55767  -0.48741
  Beta  occ. eigenvalues --   -0.44824  -0.37689  -0.35736
  Beta virt. eigenvalues --   -0.08437   0.08929   0.12447   0.14588   0.15074
  Beta virt. eigenvalues --    0.18643   0.22825   0.29717   0.30783   0.33772
  Beta virt. eigenvalues --    0.42882   0.49069   0.50434   0.51346   0.52317
  Beta virt. eigenvalues --    0.55094   0.55382   0.57334   0.59227   0.67056
  Beta virt. eigenvalues --    0.68363   0.72203   0.77536   0.82050   0.84483
  Beta virt. eigenvalues --    0.90199   0.93009   0.96331   1.01291   1.02968
  Beta virt. eigenvalues --    1.05903   1.07792   1.14129   1.15094   1.18429
  Beta virt. eigenvalues --    1.19273   1.30546   1.35467   1.37536   1.38388
  Beta virt. eigenvalues --    1.45930   1.51388   1.60958   1.66009   1.77183
  Beta virt. eigenvalues --    1.87912   1.96624   2.01226   2.07193   2.08587
  Beta virt. eigenvalues --    2.12297   2.18151   2.23969   2.32667   2.37203
  Beta virt. eigenvalues --    2.42632   2.48114   2.55031   2.57391   2.70813
  Beta virt. eigenvalues --    2.82073   2.88759   2.91105   2.95777   3.01544
  Beta virt. eigenvalues --    3.03342   3.08459   3.10616   3.12147   3.14959
  Beta virt. eigenvalues --    3.15450   3.18757   3.28685   3.32551   3.39778
  Beta virt. eigenvalues --    3.41420   3.48425   3.51525   3.52032   3.56398
  Beta virt. eigenvalues --    3.59078   3.60302   3.62627   3.63911   3.66375
  Beta virt. eigenvalues --    3.74820   3.83828   3.86224   3.88312   3.89236
  Beta virt. eigenvalues --    3.93470   3.94905   3.96213   4.01479   4.09932
  Beta virt. eigenvalues --    4.10870   4.16724   4.17690   4.23476   4.34133
  Beta virt. eigenvalues --    4.34299   4.43724   4.54128   4.68569   4.70482
  Beta virt. eigenvalues --    4.73298   4.81627   4.82419   4.92427   4.97130
  Beta virt. eigenvalues --    4.99093   5.01566   5.06427   5.23849   5.29443
  Beta virt. eigenvalues --    5.30396   5.34140   5.36884   5.38263   5.38829
  Beta virt. eigenvalues --    5.46290   5.67275   5.77861   5.90250   5.91875
  Beta virt. eigenvalues --    5.94866   6.07408   6.11325   6.25048   6.36512
  Beta virt. eigenvalues --    6.50919   6.52813   6.62595   6.72138   6.76983
  Beta virt. eigenvalues --    6.82878   6.94652   7.03152   7.07035   7.12039
  Beta virt. eigenvalues --    7.40954   7.43955   7.61340   7.75148   9.97956
[...]
     2   1     0.11   0.75  -0.21    -0.09  -0.57   0.15     0.01   0.11  -0.05
     3   1    -0.33  -0.16  -0.18    -0.29  -0.12  -0.18     0.68   0.32   0.39
     4   1    -0.04  -0.06   0.46    -0.05  -0.05   0.71    -0.05  -0.06   0.51
     5   8     0.00  -0.00  -0.00     0.00   0.00   0.00    -0.00  -0.00  -0.00
     6   8    -0.00   0.00  -0.00    -0.00  -0.00   0.00     0.00   0.00   0.00
     7   1     0.01   0.00  -0.00    -0.00   0.00  -0.00     0.00   0.00  -0.00
     8   1    -0.00  -0.00   0.00     0.00   0.00  -0.00    -0.00  -0.00   0.00

 -------------------
 - Thermochemistry -
 -------------------
 Temperature   298.150 Kelvin.  Pressure   1.00000 Atm.
 Atom     1 has atomic number  6 and mass  12.00000
 Atom     2 has atomic number  1 and mass   1.00783
 Atom     3 has atomic number  1 and mass   1.00783
 Atom     4 has atomic number  1 and mass   1.00783
 Atom     5 has atomic number  8 and mass  15.99491
 Atom     6 has atomic number  8 and mass  15.99491
 Atom     7 has atomic number  1 and mass   1.00783
 Atom     8 has atomic number  1 and mass   1.00783
 Molecular mass:    49.02895 amu.
 Principal axes and moments of inertia in atomic units:
                           1         2         3
     Eigenvalues --    56.43529 190.19309 206.46251
           X            0.99651   0.04011  -0.07321
           Y           -0.06340   0.93419  -0.35111
           Z            0.05431   0.35453   0.93347
 This molecule is an asymmetric top.
 Rotational symmetry number  1.
 Rotational temperatures (Kelvin)      1.53475     0.45540     0.41951
 Rotational constants (GHZ):          31.97895     9.48899     8.74125
    1 imaginary frequencies ignored.
 Zero-point vibrational energy     137410.9 (Joules/Mol)
                                   32.84200 (Kcal/Mol)
 Warning -- explicit consideration of   4 degrees of freedom as
           vibrations may cause significant error
 Vibrational temperatures:    250.26   337.44   588.16   682.37   997.54
          (Kelvin)           1338.96  1537.89  1690.18  1748.41  1908.39
                             2099.16  2131.35  2166.25  2180.94  4368.83
                             4487.11  4540.23
 
 Zero-point correction=                           0.052337 (Hartree/Particle)
 Thermal correction to Energy=                    0.057082
 Thermal correction to Enthalpy=                  0.058026
 Thermal correction to Gibbs Free Energy=         0.025788
 Sum of electronic and zero-point Energies=           -191.233193
 Sum of electronic and thermal Energies=              -191.228448
 Sum of electronic and thermal Enthalpies=            -191.227503
 Sum of electronic and thermal Free Energies=         -191.259742
 
                     E (Thermal)             CV                S
                      KCal/Mol        Cal/Mol-Kelvin    Cal/Mol-Kelvin
 Total                   35.820             14.855             67.851
 Electronic               0.000              0.000              1.377
 Translational            0.889              2.981             37.593
 Rotational               0.889              2.981             22.321
 Vibrational             34.042              8.894              6.560
 Vibration     1          0.627              1.875              2.393
 Vibration     2          0.654              1.788              1.844
 Vibration     3          0.773              1.451              0.931
 Vibration     4          0.831              1.307              0.726
                       Q            Log10(Q)             Ln(Q)
 Total Bot       0.137523D-11        -11.861625        -27.312400
 Total V=0       0.162828D+13         12.211730         28.118547
 Vib (Bot)       0.302394D-23        -23.519426        -54.155481
 Vib (Bot)    1  0.115711D+01          0.063374          0.145925
 Vib (Bot)    2  0.838109D+00         -0.076700         -0.176607
 Vib (Bot)    3  0.433182D+00         -0.363329         -0.836597
 Vib (Bot)    4  0.354367D+00         -0.450547         -1.037423
 Vib (V=0)       0.358037D+01          0.553928          1.275466
 Vib (V=0)    1  0.176052D+01          0.245640          0.565607
 Vib (V=0)    2  0.147592D+01          0.169064          0.389284
 Vib (V=0)    3  0.116155D+01          0.065037          0.149754
 Vib (V=0)    4  0.111284D+01          0.046434          0.106917
 Electronic      0.200000D+01          0.301030          0.693147
 Translational   0.134938D+08          7.130133         16.417738
 Rotational      0.168515D+05          4.226639          9.732196
 ***** Axes restored to original set *****
 -------------------------------------------------------------------
 Center     Atomic                   Forces (Hartrees/Bohr)
 Number     Number              X              Y              Z
 -------------------------------------------------------------------
      1        6          -0.000003090   -0.000008643    0.000001534
      2        1          -0.000003220   -0.000000768    0.000000826
      3        1           0.000000238    0.000000020   -0.000000291
      4        1          -0.000000192    0.000000273   -0.000000753
      5        8           0.000069501   -0.000014300    0.000037407
      6        8          -0.000068588    0.000035280   -0.000031229
      7        1           0.000012510   -0.000017332   -0.000011363
      8        1          -0.000007160    0.000005469    0.000003869
 -------------------------------------------------------------------
 Cartesian Forces:  Max     0.000069501 RMS     0.000024273
 FormGI is forming the generalized inverse of G from B-inverse, IUseBI=4.

 GradGradGradGradGradGradGradGradGradGradGradGradGradGradGradGradGradGrad
 Berny optimization.
 Internal  Forces:  Max     0.000077655 RMS     0.000017759
 Search for a saddle point.
 Step number   1 out of a maximum of    2
 All quantities printed in internal units (Hartrees-Bohrs-Radians)
 Swapping is turned off.
 Second derivative matrix not updated -- analytic derivatives used.
 ITU=  0
     Eigenvalues ---   -0.05341   0.00650   0.01072   0.02200   0.02383
     Eigenvalues ---    0.08436   0.08498   0.13005   0.15604   0.16677
     Eigenvalues ---    0.18157   0.20028   0.26991   0.32189   0.33627
     Eigenvalues ---    0.34663   0.35591   0.41032
 Eigenvectors required to have negative eigenvalues:
                          R7        R6        R5        A8        D4
   1                   -0.75887   0.61317  -0.17358   0.10122   0.05348
                          A7        A3        R4        D3        A6
   1                    0.04082  -0.03337   0.02853   0.01518  -0.01473
 Angle between quadratic step and forces=  80.88 degrees.
 Linear search not attempted -- option 19 set.
 Iteration  1 RMS(Cart)=  0.00029076 RMS(Int)=  0.00000006
 Iteration  2 RMS(Cart)=  0.00000007 RMS(Int)=  0.00000000
 Variable       Old X    -DE/DX   Delta X   Delta X   Delta X     New X
                                 (Linear)    (Quad)   (Total)
    R1        2.06282  -0.00000   0.00000  -0.00001  -0.00001   2.06281
    R2        2.05486   0.00000   0.00000   0.00000   0.00000   2.05486
    R3        2.05596   0.00000   0.00000  -0.00000  -0.00000   2.05596
    R4        2.68721  -0.00001   0.00000  -0.00002  -0.00002   2.68719
    R5        2.64822   0.00008   0.00000   0.00018   0.00018   2.64840
    R6        2.08676  -0.00001   0.00000   0.00031   0.00031   2.08707
    R7        1.94780   0.00001   0.00000  -0.00052  -0.00052   1.94727
    A1        1.92009   0.00000   0.00000   0.00001   0.00001   1.92010
    A2        1.92017   0.00000   0.00000   0.00001   0.00001   1.92017
    A3        1.92731  -0.00001   0.00000  -0.00002  -0.00002   1.92729
    A4        1.92874   0.00000   0.00000  -0.00000  -0.00000   1.92874
    A5        1.83399   0.00000   0.00000  -0.00000  -0.00000   1.83398
    A6        1.93208   0.00000   0.00000   0.00001   0.00001   1.93209
    A7        1.88338  -0.00000   0.00000  -0.00003  -0.00003   1.88335
    A8        1.82978   0.00001   0.00000   0.00001   0.00001   1.82979
    A9        3.08141   0.00001   0.00000   0.00041   0.00041   3.08182
   A10        3.09035  -0.00000   0.00000   0.00001   0.00001   3.09036
    D1        1.15475  -0.00000   0.00000   0.00000   0.00000   1.15475
    D2       -3.05861  -0.00000   0.00000   0.00000   0.00000  -3.05861
    D3       -0.97607   0.00000   0.00000   0.00000   0.00000  -0.97607
    D4       -1.55240  -0.00001   0.00000  -0.00024  -0.00024  -1.55265
         Item               Value     Threshold  Converged?
 Maximum Force            0.000078     0.000450     YES
 RMS     Force            0.000018     0.000300     YES
 Maximum Displacement     0.000884     0.001800     YES
 RMS     Displacement     0.000291     0.001200     YES
 Predicted change in Energy=-5.111084D-09
 Optimization completed.
    -- Stationary point found.
                           ----------------------------
                           !   Optimized Parameters   !
                           ! (Angstroms and Degrees)  !
 --------------------------                            --------------------------
 ! Name  Definition              Value          Derivative Info.                !
 --------------------------------------------------------------------------------
 ! R1    R(1,2)                  1.0916         -DE/DX =    0.0                 !
 ! R2    R(1,3)                  1.0874         -DE/DX =    0.0                 !
 ! R3    R(1,4)                  1.088          -DE/DX =    0.0                 !
 ! R4    R(1,5)                  1.422          -DE/DX =    0.0                 !
 ! R5    R(5,6)                  1.4014         -DE/DX =    0.0001              !
 ! R6    R(6,7)                  1.1043         -DE/DX =    0.0                 !
 ! R7    R(7,8)                  1.0307         -DE/DX =    0.0                 !
 ! A1    A(2,1,3)              110.0131         -DE/DX =    0.0                 !
 ! A2    A(2,1,4)              110.0174         -DE/DX =    0.0                 !
 ! A3    A(2,1,5)              110.4267         -DE/DX =    0.0                 !
 ! A4    A(3,1,4)              110.5086         -DE/DX =    0.0                 !
 ! A5    A(3,1,5)              105.0797         -DE/DX =    0.0                 !
 ! A6    A(4,1,5)              110.7            -DE/DX =    0.0                 !
 ! A7    A(1,5,6)              107.9097         -DE/DX =    0.0                 !
 ! A8    A(5,6,7)              104.8386         -DE/DX =    0.0                 !
 ! A9    L(6,7,8,2,-1)         176.552          -DE/DX =    0.0                 !
 ! A10   L(6,7,8,2,-2)         177.064          -DE/DX =    0.0                 !
 ! D1    D(2,1,5,6)             66.1623         -DE/DX =    0.0                 !
 ! D2    D(3,1,5,6)           -175.2456         -DE/DX =    0.0                 !
 ! D3    D(4,1,5,6)            -55.9249         -DE/DX =    0.0                 !
 ! D4    D(1,5,6,7)            -88.9461         -DE/DX =    0.0                 !
 --------------------------------------------------------------------------------
 GradGradGradGradGradGradGradGradGradGradGradGradGradGradGradGradGradGrad


 ----------------------------------------------------------------------

 Electric dipole moment (input orientation):
 (Debye = 10**-18 statcoulomb cm , SI units = C m)
                  (au)            (Debye)         (10**-30 SI)
   Tot        0.788189D+00      0.200338D+01      0.668254D+01
   x          0.590030D+00      0.149971D+01      0.500248D+01
   y          0.522504D+00      0.132807D+01      0.442997D+01
   z         -0.979400D-02     -0.248939D-01     -0.830370D-01

 Dipole polarizability, Alpha (input orientation).
 (esu units = cm**3 , SI units = C**2 m**2 J**-1)
 Alpha(0;0):
               (au)            (10**-24 esu)      (10**-40 SI)
   iso        0.354615D+02      0.525485D+01      0.584681D+01
   aniso      0.322539D+02      0.477954D+01      0.531796D+01
   xx         0.439361D+02      0.651065D+01      0.724408D+01
   yx        -0.135689D+02     -0.201071D+01     -0.223722D+01
   yy         0.366968D+02      0.543790D+01      0.605048D+01
   zx        -0.517996D+01     -0.767591D+00     -0.854060D+00
   zy         0.721192D+01      0.106870D+01      0.118909D+01
   zz         0.257517D+02      0.381601D+01      0.424588D+01

 ----------------------------------------------------------------------

 Dipole orientation:
     6          0.89743046         -0.70844037          1.97516369
     1         -0.54602846          0.20370859          3.13259062
     1          1.27328317         -2.60094444          2.68199325
     1          2.61797193          0.41703038          1.97964825
     8          0.00159946         -1.06412588         -0.53323792
     8         -0.32421559          1.32506184         -1.62808654
     1         -2.27940401          1.87188346         -1.14559985
     1         -4.05004986          2.43761875         -0.56365037

 Electric dipole moment (dipole orientation):
 (Debye = 10**-18 statcoulomb cm , SI units = C m)
                  (au)            (Debye)         (10**-30 SI)
   Tot        0.788189D+00      0.200338D+01      0.668254D+01
   x          0.000000D+00      0.000000D+00      0.000000D+00
   y          0.000000D+00      0.000000D+00      0.000000D+00
   z          0.788189D+00      0.200338D+01      0.668254D+01

 Dipole polarizability, Alpha (dipole orientation).
 (esu units = cm**3 , SI units = C**2 m**2 J**-1)
 Alpha(0;0):
               (au)            (10**-24 esu)      (10**-40 SI)
   iso        0.354615D+02      0.525485D+01      0.584681D+01
   aniso      0.322539D+02      0.477954D+01      0.531796D+01
   xx         0.465970D+02      0.690496D+01      0.768280D+01
   yx        -0.147460D+02     -0.218513D+01     -0.243129D+01
   yy         0.325254D+02      0.481976D+01      0.536271D+01
   zx         0.285228D+01      0.422664D+00      0.470277D+00
   zy        -0.461174D+01     -0.683389D+00     -0.760373D+00
   zz         0.272622D+02      0.403984D+01      0.449492D+01

 ----------------------------------------------------------------------
 1\1\GINC-N58\Freq\UB2PLYPD3-FC\CC-pVTZ\C1H5O2(2)\ROOT\05-Jun-2019\0\\#
 N Geom=AllCheck Guess=TCheck SCRF=Check GenChk UB2PLYPD3(FC)/CC-pVTZ F
 req\\Title Card Required\\0,2\C,1.1762397006,0.2461850025,-0.119971197
 4\H,1.0617778365,1.3039387988,0.1242421558\H,2.0455099149,-0.161628473
 5,0.3903840466\H,1.272578567,0.1207989347,-1.1963858938\O,0.0720928132
 ,-0.5000185063,0.3761689512\O,-1.0715052645,-0.0957523717,-0.325693630
 8\H,-1.4733275301,0.7540094664,0.2538296427\H,-1.7985360375,1.59514614
 91,0.7529599258\\Version=ES64L-G16RevB.01\State=2-A\HF=-191.0624727\MP
 2=-191.2855297\PUHF=-191.0681312\PMP2-0=-191.2860632\S2=0.768555\S2-1=
 0.744349\S2A=0.750069\RMSD=2.033e-09\RMSF=2.427e-05\ZeroPoint=0.052337
 1\Thermal=0.0570822\Dipole=0.5900296,0.522504,-0.009794\DipoleDeriv=0.
 6070741,-0.0509561,-0.1375517,0.1720724,0.3471748,-0.0436418,-0.161402
 ,0.0402033,0.3474267,-0.0434991,0.1021983,0.0443246,-0.0616076,-0.1111
 256,-0.0238783,0.0608899,-0.0750512,0.0269033,-0.0753272,0.0345354,-0.
 0325854,0.0300578,0.0490837,0.0527887,-0.0476789,0.0414958,0.0379995,0
 .0021485,-0.0004039,-0.0103811,-0.0391699,0.0425839,-0.0392476,0.10092
 26,-0.0273886,-0.121389,-0.7951635,0.4425783,0.3012146,0.0038886,-0.41
 71658,-0.0517821,-0.3211828,0.3549653,-0.1171982,0.4474794,-0.7598073,
 -0.238343,-0.6030155,0.3748116,0.3110948,0.140624,-0.0753921,-0.180085
 7,-0.217357,0.3422023,0.1358034,0.7343903,-0.5095998,-0.3403591,0.3967
 325,-0.4274765,-0.0654352,0.0746448,-0.1103469,-0.0624814,-0.236616,0.
 2242372,0.1350254,-0.1689055,0.168644,0.0717786\Polar=43.9360597,-13.5
 68942,36.6967624,-5.1799611,7.2119233,25.7516815\PG=C01 [X(C1H5O2)]\NI
 mag=1\\0.50329375,-0.07301435,0.55253884,0.05254665,0.00645298,0.59434
 832,-0.05505931,0.04215602,0.00707298,0.05838521,0.03696156,-0.2837423
 6,-0.06212773,-0.02959903,0.31561900,0.00918357,-0.06290391,-0.0690709
 6,-0.01268420,0.06196054,0.06599085,-0.21342587,0.07912452,-0.09738928
 ,-0.00075026,0.00159601,-0.00171423,0.24318293,0.08853599,-0.09372338,
 0.05348170,0.02393068,-0.00874891,0.01516715,-0.08611833,0.09335143,-0
 .10572563,0.05178480,-0.11526063,0.00734565,-0.00360070,0.00425107,0.1
 0997693,-0.05614329,0.11498832,-0.04960939,0.00548472,0.00735160,0.001
 49481,0.00232457,0.00504734,0.00468644,-0.00425690,-0.02480147,0.05458
 277,0.00378648,-0.05718638,-0.04239802,0.00206772,-0.00298317,-0.03118
 507,-0.00108780,0.00204002,0.01258959,0.00287719,0.05810827,0.01549896
 ,-0.03787654,-0.31104974,-0.00103351,-0.00065665,-0.00581411,0.0011493
 1,-0.00302342,-0.01109165,-0.02313871,0.03557171,0.33676446,-0.1247655
 3,-0.07489263,0.05956167,-0.01175032,-0.01231832,0.00178789,-0.0275005
 3,-0.01513744,0.00926942,-0.01760592,-0.00966851,0.00982232,0.36632533
 ,-0.04439580,-0.12469958,0.05558160,-0.03664640,-0.02301330,0.01773720
 ,0.01003590,0.00660709,-0.00480504,-0.00625918,0.00039347,0.00663405,0
 .03417031,0.20957392,0.03359770,0.04762062,-0.10553227,-0.00338238,0.0
 0321227,0.00567331,-0.01449632,-0.00912218,0.00524606,0.03306822,0.026
 59818,-0.01104477,0.01045786,-0.11525359,0.18829303,-0.06448009,0.0141
 3415,-0.02895352,0.00815613,0.00338331,-0.00159260,-0.00594984,-0.0062
 0618,0.00402678,0.00714399,0.00254867,-0.00292316,-0.14599009,0.018384
 60,-0.05394640,0.20406321,-0.00281274,0.00575341,-0.01288846,-0.004829
 05,0.00172270,0.00042518,-0.00318141,0.00080982,0.00010758,-0.00132535
 ,-0.00025721,0.00037477,0.03634410,-0.05319937,0.02152770,-0.02312877,
 0.09434014,-0.00153668,-0.00440211,0.00671444,0.00087030,0.00078859,-0
 .00074126,0.00259925,-0.00037401,0.00171544,0.00223823,-0.00107001,0.0
 0307363,-0.09678644,0.02571708,-0.10694531,0.08831596,0.04698393,0.175
 48282,0.00527114,0.00683372,-0.00101462,-0.00102661,-0.00264743,0.0001
 5878,-0.00033522,-0.00092704,-0.00011476,-0.00076337,-0.00043266,0.000
 75274,-0.04491037,0.02612544,-0.00912636,0.01308892,-0.03082631,-0.010
 88387,0.02808004,-0.01291829,-0.00218897,0.00263250,0.00325298,0.00226
 513,-0.00132870,-0.00020369,-0.00022195,0.00007666,0.00141648,0.000225
 66,-0.00164079,0.05740648,-0.01757918,0.03639587,-0.05815789,0.0253159
 7,-0.03120304,0.02741015,-0.04790872,-0.00676488,-0.00147575,0.0010311
 0,0.00224211,0.00127211,-0.00041233,-0.00008726,0.00004151,0.00019954,
 0.00055523,-0.00000817,-0.00111495,0.01591804,0.01085556,0.02874937,-0
 .03497710,-0.00922248,-0.05919545,0.03725604,-0.03296106,0.02029754,-0
 .00122471,0.00017385,0.00082452,0.00055035,0.00029934,-0.00018655,0.00
 009235,0.00017921,0.00002307,0.00007066,-0.00009108,-0.00012795,0.0061
 9743,-0.00141486,0.00382768,-0.01603223,0.02975953,0.01518326,0.000595
 48,-0.01820621,-0.01414218,0.00975067,0.00385715,0.00324843,-0.0007345
 7,-0.00033292,-0.00111909,0.00012761,-0.00016519,-0.00011411,-0.000009
 60,-0.00026153,-0.00034066,0.00061687,-0.01590399,0.00191696,-0.010978
 88,0.04904211,-0.07448545,-0.03644043,-0.02553586,0.04009207,0.0314982
 8,-0.01069977,0.03080186,0.00320031,0.00079990,-0.00118026,-0.00043096
 ,-0.00084843,0.00012342,-0.00003841,-0.00002746,-0.00004815,-0.0003204
 4,-0.00009821,0.00027714,-0.01003075,0.00353313,-0.00443943,0.03005003
 ,-0.04730822,-0.02010429,-0.01702794,0.02802857,0.01044517,-0.00540183
 ,0.01592072,0.01492639\\0.00000309,0.00000864,-0.00000153,0.00000322,0
 .00000077,-0.00000083,-0.00000024,-0.00000002,0.00000029,0.00000019,-0
 .00000027,0.00000075,-0.00006950,0.00001430,-0.00003741,0.00006859,-0.
 00003528,0.00003123,-0.00001251,0.00001733,0.00001136,0.00000716,-0.00
 000547,-0.00000387\\\@


 Everything starts as somebody's daydream.
                           -- Larry Niven
 Job cpu time:       0 days  2 hours 28 minutes 28.5 seconds.
 Elapsed time:       0 days  0 hours  3 minutes 49.1 seconds.
 File lengths (MBytes):  RWF=   5205 Int=      0 D2E=      0 Chk=      5 Scr=      1
 Normal termination of Gaussian 16 at Wed Jun  5 14:52:14 2019.
