 Entering Gaussian System, Link 0=g16
 Initial command:
 /ichec/packages/gaussian/16b01/l1.exe "/localscratch/347858/Gau-79228.inp" -scrdir="/localscratch/347858/"
 Entering Link 1 = /ichec/packages/gaussian/16b01/l1.exe PID=     79321.
  
 Copyright (c) 1988-2017, Gaussian, Inc.  All Rights Reserved.
  
 This is part of the Gaussian(R) 16 program.  It is based on
 the Gaussian(R) 09 system (copyright 2009, Gaussian, Inc.),
 the Gaussian(R) 03 system (copyright 2003, Gaussian, Inc.),
 the Gaussian(R) 98 system (copyright 1998, Gaussian, Inc.),
 the Gaussian(R) 94 system (copyright 1995, Gaussian, Inc.),
 the Gaussian 92(TM) system (copyright 1992, Gaussian, Inc.),
 the Gaussian 90(TM) system (copyright 1990, Gaussian, Inc.),
 the Gaussian 88(TM) system (copyright 1988, Gaussian, Inc.),
 the Gaussian 86(TM) system (copyright 1986, Carnegie Mellon
 University), and the Gaussian 82(TM) system (copyright 1983,
 Carnegie Mellon University). Gaussian is a federally registered
 trademark of Gaussian, Inc.
  
 This software contains proprietary and confidential information,
 including trade secrets, belonging to Gaussian, Inc.
  
 This software is provided under written license and may be
 used, copied, transmitted, or stored only in accord with that
 written license.
  
 The following legend is applicable only to US Government
 contracts under FAR:
  
                    RESTRICTED RIGHTS LEGEND
  
 Use, reproduction and disclosure by the US Government is
 subject to restrictions as set forth in subparagraphs (a)
 and (c) of the Commercial Computer Software - Restricted
 Rights clause in FAR 52.227-19.
  
 Gaussian, Inc.
 340 Quinnipiac St., Bldg. 40, Wallingford CT 06492
  
  
 ---------------------------------------------------------------
 Warning -- This program may not be used in any manner that
 competes with the business of Gaussian, Inc. or will provide
 assistance to any competitor of Gaussian, Inc.  The licensee
 of this program is prohibited from giving any competitor of
 Gaussian, Inc. access to this program.  By using this program,
 the user acknowledges that Gaussian, Inc. is engaged in the
 business of creating and licensing software in the field of
 computational chemistry and represents and warrants to the
 licensee that it is not a competitor of Gaussian, Inc. and that
 it will not use this program in any manner prohibited above.
 ---------------------------------------------------------------
  

 Cite this work as:
 Gaussian 16, Revision B.01,
 M. J. Frisch, G. W. Trucks, H. B. Schlegel, G. E. Scuseria, 
 M. A. Robb, J. R. Cheeseman, G. Scalmani, V. Barone, 
 G. A. Petersson, H. Nakatsuji, X. Li, M. Caricato, A. V. Marenich, 
 J. Bloino, B. G. Janesko, R. Gomperts, B. Mennucci, H. P. Hratchian, 
 J. V. Ortiz, A. F. Izmaylov, J. L. Sonnenberg, D. Williams-Young, 
 F. Ding, F. Lipparini, F. Egidi, J. Goings, B. Peng, A. Petrone, 
 T. Henderson, D. Ranasinghe, V. G. Zakrzewski, J. Gao, N. Rega, 
 G. Zheng, W. Liang, M. Hada, M. Ehara, K. Toyota, R. Fukuda, 
 J. Hasegawa, M. Ishida, T. Nakajima, Y. Honda, O. Kitao, H. Nakai, 
 T. Vreven, K. Throssell, J. A. Montgomery, Jr., J. E. Peralta, 
 F. Ogliaro, M. J. Bearpark, J. J. Heyd, E. N. Brothers, K. N. Kudin, 
 V. N. Staroverov, T. A. Keith, R. Kobayashi, J. Normand, 
 K. Raghavachari, A. P. Rendell, J. C. Burant, S. S. Iyengar, 
 J. Tomasi, M. Cossi, J. M. Millam, M. Klene, C. Adamo, R. Cammi, 
 J. W. Ochterski, R. L. Martin, K. Morokuma, O. Farkas, 
 J. B. Foresman, and D. J. Fox, Gaussian, Inc., Wallingford CT, 2016.
 
 ******************************************
 Gaussian 16:  ES64L-G16RevB.01 20-Dec-2017
                13-Jun-2019 
 ******************************************
 %mem=80GB
 %nproc=40
 Will use up to   40 processors via shared memory.
 ----------------------------------------------------------------------
 # opt=(calcfc,ts,noeigentest,maxcyc=500,modredundant) uB2PLYPD3/cc-pvt
 z scf=maxcyc=500 nosymm
 ----------------------------------------------------------------------
 1/5=1,6=500,10=4,11=1,18=120,38=1/1,3;
 2/9=110,12=2,15=1,17=6,18=5,40=1/2;
 3/5=16,6=1,11=2,25=1,30=1,71=2,74=-60,116=2,140=1/1,2,3;
 4//1;
 5/5=2,7=500,38=5/2;
 8/6=3,8=1,10=1,19=11,30=-1/1;
 9/15=3,16=-3/6;
 11/6=1,8=1,15=11,17=12,24=-1,27=1,28=-2,29=300,31=1,32=6,42=3/1,2,10;
 10/6=2,21=1,31=1/2;
 8/6=4,8=1,10=1,19=11,30=-1/11,4;
 10/5=1,20=4,31=1/2;
 11/12=2,14=11,16=1,17=2,28=-2,31=1,42=3,76=2/2,10,12;
 6/7=2,8=2,9=2,10=2/1;
 7/10=1,12=2,25=1,30=1,44=2/1,2,3,16;
 1/5=1,6=500,10=4,11=1,18=20/3(2);
 2/9=110,15=1/2;
 99//99;
 2/9=110,15=1/2;
 3/5=16,6=1,11=2,25=1,30=1,71=1,74=-60,116=2/1,2,3;
 4/5=5,16=3,69=1/1;
 5/5=2,7=500,38=5/2;
 8/6=4,10=1/1;
 9/15=2,16=-3/6;
 10/5=1,31=1/2;
 7/12=2,30=1/1,2,3,16;
 1/5=1,6=500,11=1,18=20/3(-8);
 2/9=110,15=1/2;
 6/7=2,8=2,9=2,10=2/1;
 99/9=10/99;
 -------------------
 Title Card Required
 -------------------
 Symbolic Z-matrix:
 Charge =  0 Multiplicity = 2
 C                    -1.16514   0.26352   0.10536 
 H                    -1.02562   1.31071  -0.16945 
 H                    -2.04015  -0.14006  -0.39851 
 H                    -1.27082   0.17254   1.18435 
 O                    -0.0749   -0.52142  -0.36087 
 O                     1.07313  -0.12173   0.33638 
 H                     1.49733   0.70123  -0.26544 
 H                     1.84426   1.51967  -0.78717 
 
 Add virtual bond connecting atoms H8         and H7         Dist= 1.95D+00.
 The following ModRedundant input section has been read:
 D    *          5       6    *    R                                           
 D       1       5       6       8 S  36 10.000                                
 

 GradGradGradGradGradGradGradGradGradGradGradGradGradGradGradGradGradGrad
 Berny optimization.
 Initialization pass.
                           ----------------------------
                           !    Initial Parameters    !
                           ! (Angstroms and Degrees)  !
 --------------------------                            --------------------------
 ! Name  Definition              Value          Derivative Info.                !
 --------------------------------------------------------------------------------
 ! R1    R(1,2)                  1.0916         calculate D2E/DX2 analytically  !
 ! R2    R(1,3)                  1.0874         calculate D2E/DX2 analytically  !
 ! R3    R(1,4)                  1.088          calculate D2E/DX2 analytically  !
 ! R4    R(1,5)                  1.422          calculate D2E/DX2 analytically  !
 ! R5    R(5,6)                  1.4014         calculate D2E/DX2 analytically  !
 ! R6    R(6,7)                  1.1043         calculate D2E/DX2 analytically  !
 ! R7    R(7,8)                  1.0307         calculate D2E/DX2 analytically  !
 ! A1    A(2,1,3)              110.0132         calculate D2E/DX2 analytically  !
 ! A2    A(2,1,4)              110.0174         calculate D2E/DX2 analytically  !
 ! A3    A(2,1,5)              110.4267         calculate D2E/DX2 analytically  !
 ! A4    A(3,1,4)              110.5086         calculate D2E/DX2 analytically  !
 ! A5    A(3,1,5)              105.0797         calculate D2E/DX2 analytically  !
 ! A6    A(4,1,5)              110.7            calculate D2E/DX2 analytically  !
 ! A7    A(1,5,6)              107.9097         calculate D2E/DX2 analytically  !
 ! A8    A(5,6,7)              104.8386         calculate D2E/DX2 analytically  !
 ! A9    L(6,7,8,2,-1)         176.5519         calculate D2E/DX2 analytically  !
 ! A10   L(6,7,8,2,-2)         177.0641         calculate D2E/DX2 analytically  !
 ! D1    D(2,1,5,6)             66.1623         calculate D2E/DX2 analytically  !
 ! D2    D(3,1,5,6)           -175.2456         calculate D2E/DX2 analytically  !
 ! D3    D(4,1,5,6)            -55.925          calculate D2E/DX2 analytically  !
 ! D4    D(1,5,6,8)            -86.7079         Scan                            !
 --------------------------------------------------------------------------------
 Trust Radius=3.00D-01 FncErr=1.00D-07 GrdErr=1.00D-07 EigMax=2.50D+02 EigMin=1.00D-04
 Number of optimizations in scan=  37
 Number of steps in this run=    100 maximum allowed number of steps=    100.
 Search for a saddle point of order  1.
 GradGradGradGradGradGradGradGradGradGradGradGradGradGradGradGradGradGrad

                          Input orientation:                          
 ---------------------------------------------------------------------
 Center     Atomic      Atomic             Coordinates (Angstroms)
 Number     Number       Type             X           Y           Z
 ---------------------------------------------------------------------
      1          6           0       -1.165137    0.263517    0.105357
      2          1           0       -1.025624    1.310705   -0.169446
      3          1           0       -2.040152   -0.140056   -0.398509
      4          1           0       -1.270821    0.172535    1.184350
      5          8           0       -0.074896   -0.521419   -0.360869
      6          8           0        1.073125   -0.121729    0.336378
      7          1           0        1.497331    0.701231   -0.265443
      8          1           0        1.844260    1.519670   -0.787171
 ---------------------------------------------------------------------
                    Distance matrix (angstroms):
                    1          2          3          4          5
     1  C    0.000000
     2  H    1.091597   0.000000
     3  H    1.087384   1.785061   0.000000
     4  H    1.087967   1.785586   1.787464   0.000000
     5  O    1.422011   2.072970   2.002270   2.073526   0.000000
     6  O    2.282893   2.590844   3.198889   2.509926   1.401377
     7  H    2.723568   2.597302   3.638579   3.169240   1.993960
     8  H    3.380976   2.943040   4.241981   3.924971   2.833891
                    6          7          8
     6  O    0.000000
     7  H    1.104266   0.000000
     8  H    2.133355   1.030729   0.000000
 Symmetry turned off by external request.
 Stoichiometry    CH5O2(2)
 Framework group  C1[X(CH5O2)]
 Deg. of freedom    18
 Full point group                 C1      NOp   1
 Rotational constants (GHZ):          31.9789613           9.4889936           8.7412521
 Standard basis: CC-pVTZ (5D, 7F)
   160 basis functions,   241 primitive gaussians,   180 cartesian basis functions
    14 alpha electrons       13 beta electrons
       nuclear repulsion energy        86.6428574915 Hartrees.
 NAtoms=    8 NActive=    8 NUniq=    8 SFac= 1.00D+00 NAtFMM=   60 NAOKFM=F Big=F
 Integral buffers will be    131072 words long.
 Raffenetti 2 integral format.
 Two-electron integral symmetry is turned off.
 Nuclear repulsion after empirical dispersion term =       86.6404999411 Hartrees.
 One-electron integrals computed using PRISM.
 NBasis=   160 RedAO= T EigKep=  1.84D-03  NBF=   160
 NBsUse=   160 1.00D-06 EigRej= -1.00D+00 NBFU=   160
 ExpMin= 1.03D-01 ExpMax= 1.53D+04 ExpMxC= 5.22D+02 IAcc=3 IRadAn=         5 AccDes= 0.00D+00
 Harris functional with IExCor=  419 and IRadAn=       5 diagonalized for initial guess.
 HarFok:  IExCor=  419 AccDes= 0.00D+00 IRadAn=         5 IDoV= 1 UseB2=F ITyADJ=14
 ICtDFT=  3500011 ScaDFX=  1.000000  1.000000  1.000000  1.000000
 FoFCou: FMM=F IPFlag=           0 FMFlag=      100000 FMFlg1=           0
         NFxFlg=           0 DoJE=T BraDBF=F KetDBF=T FulRan=T
         wScrn=  0.000000 ICntrl=       500 IOpCl=  0 I1Cent=   200000004 NGrid=           0
         NMat0=    1 NMatS0=      1 NMatT0=    0 NMatD0=    1 NMtDS0=    0 NMtDT0=    0
 Symmetry not used in FoFCou.
 Initial guess <Sx>= 0.0000 <Sy>= 0.0000 <Sz>= 0.5000 <S**2>= 0.7500 S= 0.5000
 Keep R1 and R2 ints in memory in canonical form, NReq=206285696.
 Requested convergence on RMS density matrix=1.00D-08 within 500 cycles.
 Requested convergence on MAX density matrix=1.00D-06.
 Requested convergence on             energy=1.00D-06.
 No special actions if energy rises.
 Integral accuracy reduced to 1.0D-05 until final iterations.
 Initial convergence to 1.0D-05 achieved.  Increase integral accuracy.
 SCF Done:  E(UB2PLYPD3) =  -191.062472743     A.U. after   18 cycles
            NFock= 18  Conv=0.72D-08     -V/T= 2.0042
 <Sx>= 0.0000 <Sy>= 0.0000 <Sz>= 0.5000 <S**2>= 0.7686 S= 0.5092
 <L.S>=  0.00000000000    
 Annihilation of the first spin contaminant:
 S**2 before annihilation     0.7686,   after     0.7501
 DoSCS=T DFT=T ScalE2(SS,OS)=  0.270000  0.270000
 ExpMin= 1.03D-01 ExpMax= 1.53D+04 ExpMxC= 5.22D+02 IAcc=3 IRadAn=         5 AccDes= 0.00D+00
 HarFok:  IExCor=  205 AccDes= 0.00D+00 IRadAn=         5 IDoV=-2 UseB2=F ITyADJ=14
 ICtDFT= 12500011 ScaDFX=  1.000000  1.000000  1.000000  1.000000
 Range of M.O.s used for correlation:     4   160
 NBasis=   160 NAE=    14 NBE=    13 NFC=     3 NFV=     0
 NROrb=    157 NOA=    11 NOB=    10 NVA=   146 NVB=   147

 **** Warning!!: The largest alpha MO coefficient is  0.11983289D+02


 **** Warning!!: The largest beta MO coefficient is  0.11983195D+02

 DoSCS=T DFT=T ScalE2(SS,OS)=  0.270000  0.270000
 Disk-based method using ON**2 memory for 11 occupieds at a time.
 Permanent disk used for amplitudes=     5706337 words.
 Estimated scratch disk usage=   117381096 words.
 Actual    scratch disk usage=   113459176 words.
 JobTyp=2 Pass  1:  I=   4 to  14 NPSUse= 40 ParTrn=T ParDer=T DoDerP=T.
 (rs|ai) integrals will be sorted in core.
 Actual    scratch disk usage=   113459176 words.
 JobTyp=3 Pass  1:  I=   4 to  13 NPSUse= 40 ParTrn=T ParDer=T DoDerP=T.
 (rs|ai) integrals will be sorted in core.
 Spin components of T(2) and E(2):
     alpha-alpha T2 =       0.3310493783D-01 E2=     -0.2707211026D-01
     alpha-beta  T2 =       0.2124879428D+00 E2=     -0.1685324615D+00
     beta-beta   T2 =       0.3854814975D-01 E2=     -0.2745239147D-01
 (S**2,0)=  0.76855D+00           (S**2,1)=  0.74435D+00
 Scaling Projection term by:   0.270000
 E(PUHF)=      -0.19106813126D+03        E(PMP2)=      -0.19128606318D+03
 E2(B2PLYPD3) =    -0.2230569632D+00 E(B2PLYPD3) =    -0.19128552970650D+03
 G2DrvN: will do     9 centers at a time, making    1 passes.
 Calling FoFCou, ICntrl=  3107 FMM=F I1Cent=   0 AccDes= 0.00D+00.
 End of G2Drv F.D. properties file   721 does not exist.
 End of G2Drv F.D. properties file   722 does not exist.
 End of G2Drv F.D. properties file   788 does not exist.
          IDoAtm=11111111
          Differentiating once with respect to electric field.
                with respect to dipole field.
          Differentiating once with respect to nuclear coordinates.
 Keep R1 and R2 ints in memory in canonical form, NReq=206153262.
          There are    27 degrees of freedom in the 1st order CPHF.  IDoFFX=6 NUNeed=    27.
     24 vectors produced by pass  0 Test12= 1.46D-14 3.70D-09 XBig12= 3.13D+01 3.10D+00.
 AX will form    24 AO Fock derivatives at one time.
     24 vectors produced by pass  1 Test12= 1.46D-14 3.70D-09 XBig12= 2.73D+00 4.02D-01.
     24 vectors produced by pass  2 Test12= 1.46D-14 3.70D-09 XBig12= 1.25D-01 5.98D-02.
     24 vectors produced by pass  3 Test12= 1.46D-14 3.70D-09 XBig12= 1.77D-03 6.64D-03.
     24 vectors produced by pass  4 Test12= 1.46D-14 3.70D-09 XBig12= 1.80D-05 6.31D-04.
     24 vectors produced by pass  5 Test12= 1.46D-14 3.70D-09 XBig12= 2.26D-07 8.87D-05.
     24 vectors produced by pass  6 Test12= 1.46D-14 3.70D-09 XBig12= 1.87D-09 5.19D-06.
      6 vectors produced by pass  7 Test12= 1.46D-14 3.70D-09 XBig12= 1.25D-11 3.71D-07.
      3 vectors produced by pass  8 Test12= 1.46D-14 3.70D-09 XBig12= 6.83D-14 3.10D-08.
 InvSVY:  IOpt=1 It=  1 EMax= 3.55D-15
 Solved reduced A of dimension   177 with    27 vectors.
 End of Minotr F.D. properties file   721 does not exist.
 End of Minotr F.D. properties file   722 does not exist.
 End of Minotr F.D. properties file   788 does not exist.
 MDV= 10737418240.
 DoSCS=T DFT=T ScalE2(SS,OS)=  0.270000  0.270000
 Form MO integral derivatives with frozen-active canonical formalism.
 Discarding MO integrals.
 Reordered first order wavefunction length =     23137793
 In DefCFB: NBatch=  1 ICI= 14 ICA=147 LFMax= 74
            Large arrays: LIAPS=   455616000 LIARS=   181515600 words.
 In DefCFB: NBatch=  1 ICI= 14 ICA=147 LFMax= 74
            Large arrays: LIAPS=   455616000 LIARS=   181515600 words.
 Semi-Direct transformation.
 ModeAB=           2 MOrb=            14 LenV=   10736500787
 LASXX=     26967101 LTotXX=    26967101 LenRXX=    26967101
 LTotAB=    27679120 MaxLAS=    36489600 LenRXY=    36489600
 NonZer=    53934202 LenScr=    81682432 LnRSAI=           0
 LnScr1=           0 LExtra=           0 Total=    145139133
 MaxDsk=          -1 SrtSym=           F ITran=            4
 JobTyp=1 Pass  1:  I=   1 to  14.
 (rs|ai) integrals will be sorted in core.
 ModeAB=           2 MOrb=            13 LenV=   10736500787
 LASXX=     25148019 LTotXX=    25148019 LenRXX=    33883200
 LTotAB=    21483462 MaxLAS=    33883200 LenRXY=    21483462
 NonZer=    50296038 LenScr=    76217344 LnRSAI=           0
 LnScr1=           0 LExtra=           0 Total=    131584006
 MaxDsk=          -1 SrtSym=           F ITran=            4
 JobTyp=2 Pass  1:  I=   1 to  13.
 (rs|ai) integrals will be sorted in core.
 DoSCS=T DFT=T ScalE2(SS,OS)=  0.270000  0.270000
 Spin components of T(2) and E(2):
     alpha-alpha T2 =       0.3310493783D-01 E2=     -0.2707211026D-01
     alpha-beta  T2 =       0.2124879428D+00 E2=     -0.1685324615D+00
     beta-beta   T2 =       0.3854814975D-01 E2=     -0.2745239147D-01
 E2(B2PLYPD3) =    -0.2230569632D+00 E(B2PLYPD3) =    -0.19128552970650D+03
 (S**2,0)=  0.76855D+00           (S**2,1)=  0.74435D+00
 Scaling Projection term by:   0.270000
 E(PUHF)=      -0.19106813126D+03        E(PMP2)=      -0.19128606318D+03
          IDoAtm=11111111
          Differentiating once with respect to electric field.
                with respect to dipole field.
          Differentiating once with respect to nuclear coordinates.
 Keep R1 and R2 ints in memory in canonical form, NReq=206291324.
          There are     1 degrees of freedom in the 1st order CPHF.  IDoFFX=0 NUNeed=     1.
 LinEq1:  Iter=  0 NonCon=     1 RMS=1.47D-03 Max=6.31D-02 NDo=     1
 AX will form     1 AO Fock derivatives at one time.
 LinEq1:  Iter=  1 NonCon=     1 RMS=3.88D-04 Max=5.76D-03 NDo=     1
 LinEq1:  Iter=  2 NonCon=     1 RMS=2.56D-04 Max=4.75D-03 NDo=     1
 LinEq1:  Iter=  3 NonCon=     1 RMS=1.31D-04 Max=2.06D-03 NDo=     1
 LinEq1:  Iter=  4 NonCon=     1 RMS=6.99D-05 Max=8.72D-04 NDo=     1
 LinEq1:  Iter=  5 NonCon=     1 RMS=3.72D-05 Max=5.22D-04 NDo=     1
 LinEq1:  Iter=  6 NonCon=     1 RMS=2.51D-05 Max=4.83D-04 NDo=     1
 LinEq1:  Iter=  7 NonCon=     1 RMS=8.24D-06 Max=1.13D-04 NDo=     1
 LinEq1:  Iter=  8 NonCon=     1 RMS=2.84D-06 Max=4.08D-05 NDo=     1
 LinEq1:  Iter=  9 NonCon=     1 RMS=8.54D-07 Max=1.34D-05 NDo=     1
 LinEq1:  Iter= 10 NonCon=     1 RMS=2.31D-07 Max=2.95D-06 NDo=     1
 LinEq1:  Iter= 11 NonCon=     1 RMS=6.69D-08 Max=1.25D-06 NDo=     1
 LinEq1:  Iter= 12 NonCon=     1 RMS=1.66D-08 Max=4.85D-07 NDo=     1
 LinEq1:  Iter= 13 NonCon=     1 RMS=4.91D-09 Max=1.49D-07 NDo=     1
 LinEq1:  Iter= 14 NonCon=     1 RMS=1.45D-09 Max=2.75D-08 NDo=     1
 LinEq1:  Iter= 15 NonCon=     1 RMS=3.80D-10 Max=4.13D-09 NDo=     1
 LinEq1:  Iter= 16 NonCon=     0 RMS=9.77D-11 Max=9.99D-10 NDo=     1
 Linear equations converged to 1.000D-10 1.000D-09 after    16 iterations.
 End of Minotr F.D. properties file   721 does not exist.
 End of Minotr F.D. properties file   722 does not exist.
 End of Minotr F.D. properties file   788 does not exist.
 Symmetrizing basis deriv contribution to polar:
 IMax=3 JMax=2 DiffMx= 0.00D+00
 G2DrvN: will do     9 centers at a time, making    1 passes.
 Calling FoFCou, ICntrl=  3107 FMM=F I1Cent=   0 AccDes= 0.00D+00.
 End of G2Drv F.D. properties file   721 does not exist.
 End of G2Drv F.D. properties file   722 does not exist.
 End of G2Drv F.D. properties file   788 does not exist.
 DoSCS=T DFT=T ScalE2(SS,OS)=  0.270000  0.270000
 R2 and R3 integrals will be kept in memory, NReq=   268345170.
 DD1Dir will call FoFMem   1 times, MxPair=       534
 NAB=   182 NAA=    91 NBB=    78.
 Discarding MO integrals.

 **********************************************************************

            Population analysis using the SCF Density.

 **********************************************************************

 Alpha  occ. eigenvalues --  -19.81095 -19.80391 -10.67098  -1.29899  -1.04231
 Alpha  occ. eigenvalues --   -0.79191  -0.64778  -0.57413  -0.56097  -0.51837
 Alpha  occ. eigenvalues --   -0.45691  -0.41685  -0.38672  -0.34699
 Alpha virt. eigenvalues --    0.08805   0.11686   0.14525   0.14990   0.17500
 Alpha virt. eigenvalues --    0.20778   0.28846   0.30436   0.32407   0.42407
 Alpha virt. eigenvalues --    0.48608   0.49007   0.50336   0.51202   0.53103
 Alpha virt. eigenvalues --    0.53970   0.56016   0.57837   0.66644   0.67608
 Alpha virt. eigenvalues --    0.70118   0.77091   0.80386   0.83471   0.89895
 Alpha virt. eigenvalues --    0.92614   0.95273   1.00370   1.02641   1.05567
 Alpha virt. eigenvalues --    1.07302   1.13118   1.14597   1.16746   1.19028
 Alpha virt. eigenvalues --    1.30301   1.35342   1.37513   1.38328   1.45054
 Alpha virt. eigenvalues --    1.51039   1.60876   1.65131   1.76961   1.86423
 Alpha virt. eigenvalues --    1.96102   2.00328   2.05112   2.06916   2.10326
 Alpha virt. eigenvalues --    2.17993   2.22345   2.31901   2.35984   2.41904
 Alpha virt. eigenvalues --    2.47659   2.49369   2.56866   2.70730   2.82002
 Alpha virt. eigenvalues --    2.88679   2.91083   2.95377   3.01129   3.01759
 Alpha virt. eigenvalues --    3.06514   3.10102   3.11639   3.13824   3.15145
 Alpha virt. eigenvalues --    3.18412   3.25086   3.29003   3.39715   3.40993
 Alpha virt. eigenvalues --    3.47480   3.50708   3.51803   3.55601   3.57679
 Alpha virt. eigenvalues --    3.58300   3.61496   3.62182   3.64793   3.73302
 Alpha virt. eigenvalues --    3.82133   3.83028   3.85226   3.86466   3.92068
 Alpha virt. eigenvalues --    3.94984   3.95473   3.99937   4.08572   4.09782
 Alpha virt. eigenvalues --    4.16554   4.17641   4.23211   4.33940   4.34190
 Alpha virt. eigenvalues --    4.43445   4.51415   4.66409   4.69295   4.71476
 Alpha virt. eigenvalues --    4.81120   4.81958   4.92305   4.95952   4.98537
 Alpha virt. eigenvalues --    5.01356   5.05979   5.22962   5.29227   5.29938
 Alpha virt. eigenvalues --    5.33922   5.36169   5.37723   5.38311   5.45953
 Alpha virt. eigenvalues --    5.66577   5.77056   5.88519   5.91467   5.94633
 Alpha virt. eigenvalues --    6.06958   6.09503   6.24670   6.36234   6.48090
 Alpha virt. eigenvalues --    6.50928   6.61317   6.70602   6.75182   6.80802
 Alpha virt. eigenvalues --    6.93390   7.02585   7.05646   7.10197   7.40606
 Alpha virt. eigenvalues --    7.41979   7.59537   7.74128   9.97402  10.95968
 Alpha virt. eigenvalues --   13.35648
  Beta  occ. eigenvalues --  -19.80204 -19.79635 -10.67105  -1.27998  -1.01558
  Beta  occ. eigenvalues --   -0.78742  -0.60638  -0.55966  -0.55767  -0.48741
  Beta  occ. eigenvalues --   -0.44824  -0.37689  -0.35736
  Beta virt. eigenvalues --   -0.08437   0.08929   0.12447   0.14588   0.15074
  Beta virt. eigenvalues --    0.18643   0.22825   0.29717   0.30783   0.33772
  Beta virt. eigenvalues --    0.42882   0.49069   0.50434   0.51346   0.52317
  Beta virt. eigenvalues --    0.55094   0.55382   0.57334   0.59227   0.67056
  Beta virt. eigenvalues --    0.68363   0.72203   0.77536   0.82050   0.84483
  Beta virt. eigenvalues --    0.90199   0.93009   0.96331   1.01291   1.02968
  Beta virt. eigenvalues --    1.05903   1.07792   1.14129   1.15094   1.18429
  Beta virt. eigenvalues --    1.19273   1.30546   1.35467   1.37536   1.38388
  Beta virt. eigenvalues --    1.45930   1.51388   1.60958   1.66009   1.77183
  Beta virt. eigenvalues --    1.87912   1.96624   2.01226   2.07193   2.08587
  Beta virt. eigenvalues --    2.12297   2.18151   2.23969   2.32667   2.37203
  Beta virt. eigenvalues --    2.42632   2.48114   2.55031   2.57391   2.70813
  Beta virt. eigenvalues --    2.82073   2.88759   2.91105   2.95777   3.01544
  Beta virt. eigenvalues --    3.03342   3.08459   3.10616   3.12147   3.14959
  Beta virt. eigenvalues --    3.15450   3.18757   3.28685   3.32551   3.39778
  Beta virt. eigenvalues --    3.41420   3.48425   3.51525   3.52032   3.56398
  Beta virt. eigenvalues --    3.59078   3.60302   3.62627   3.63911   3.66375
  Beta virt. eigenvalues --    3.74820   3.83828   3.86224   3.88312   3.89236
  Beta virt. eigenvalues --    3.93470   3.94905   3.96213   4.01479   4.09932
  Beta virt. eigenvalues --    4.10870   4.16724   4.17690   4.23476   4.34133
  Beta virt. eigenvalues --    4.34299   4.43725   4.54128   4.68569   4.70482
  Beta virt. eigenvalues --    4.73298   4.81627   4.82420   4.92427   4.97130
  Beta virt. eigenvalues --    4.99093   5.01566   5.06427   5.23849   5.29443
  Beta virt. eigenvalues --    5.30396   5.34140   5.36884   5.38263   5.38829
  Beta virt. eigenvalues --    5.46290   5.67275   5.77861   5.90250   5.91875
  Beta virt. eigenvalues --    5.94866   6.07408   6.11325   6.25048   6.36512
  Beta virt. eigenvalues --    6.50919   6.52813   6.62595   6.72138   6.76983
  Beta virt. eigenvalues --    6.82878   6.94652   7.03152   7.07035   7.12039
  Beta virt. eigenvalues --    7.40955   7.43955   7.61340   7.75148   9.97955
  Beta virt. eigenvalues --   10.97135  13.35650
          Condensed to atoms (all electrons):
               1          2          3          4          5          6
     1  C    4.584043   0.396615   0.393824   0.409045   0.304247  -0.043103
     2  H    0.396615   0.663559  -0.030011  -0.059682  -0.045779  -0.002402
     3  H    0.393824  -0.030011   0.587923  -0.029722  -0.025664   0.006837
     4  H    0.409045  -0.059682  -0.029722   0.634062  -0.042236   0.002949
     5  O    0.304247  -0.045779  -0.025664  -0.042236   7.927406   0.076637
     6  O   -0.043103  -0.002402   0.006837   0.002949   0.076637   7.993912
     7  H   -0.000886   0.005725  -0.000724  -0.000550  -0.024768   0.221764
     8  H   -0.003314   0.002150   0.000196  -0.000139   0.001860  -0.062174
               7          8
     1  C   -0.000886  -0.003314
     2  H    0.005725   0.002150
     3  H   -0.000724   0.000196
     4  H   -0.000550  -0.000139
     5  O   -0.024768   0.001860
     6  O    0.221764  -0.062174
     7  H    0.436190   0.163913
     8  H    0.163913   0.943684
          Atomic-Atomic Spin Densities.
               1          2          3          4          5          6
     1  C   -0.005353   0.006912   0.000546  -0.004199  -0.000879  -0.002530
     2  H    0.006912  -0.001706  -0.000708  -0.000901  -0.000178   0.003507
     3  H    0.000546  -0.000708  -0.001471   0.001055  -0.000018  -0.000181
     4  H   -0.004199  -0.000901   0.001055   0.006259  -0.001117  -0.000195
     5  O   -0.000879  -0.000178  -0.000018  -0.001117   0.064335  -0.040648
     6  O   -0.002530   0.003507  -0.000181  -0.000195  -0.040648   0.483282
     7  H    0.003034  -0.003139   0.000005   0.001103   0.005601   0.009243
     8  H    0.000399  -0.005381   0.000114   0.001346   0.011510  -0.071629
               7          8
     1  C    0.003034   0.000399
     2  H   -0.003139  -0.005381
     3  H    0.000005   0.000114
     4  H    0.001103   0.001346
     5  O    0.005601   0.011510
     6  O    0.009243  -0.071629
     7  H   -0.152041   0.008991
     8  H    0.008991   0.763371
 Mulliken charges and spin densities:
               1          2
     1  C   -0.040471  -0.002070
     2  H    0.069824  -0.001594
     3  H    0.097339  -0.000657
     4  H    0.086272   0.003350
     5  O   -0.171703   0.038606
     6  O   -0.194420   0.380849
     7  H    0.199334  -0.127204
     8  H   -0.046176   0.708720
 Sum of Mulliken charges =  -0.00000   1.00000
 Mulliken charges and spin densities with hydrogens summed into heavy atoms:
               1          2
     1  C    0.212964  -0.000971
     5  O   -0.171703   0.038606
     6  O   -0.041261   0.962365
 APT charges:
               1
     1  C    0.433891
     2  H   -0.042573
     3  H    0.003919
     4  H   -0.025552
     5  O   -0.443175
     6  O    0.214067
     7  H   -0.264130
     8  H    0.123553
 Sum of APT charges =  -0.00000
 APT charges with hydrogens summed into heavy atoms:
               1
     1  C    0.369684
     5  O   -0.443175
     6  O    0.073491
 Electronic spatial extent (au):  <R**2>=            190.7375
 Charge=             -0.0000 electrons
 Dipole moment (field-independent basis, Debye):
    X=             -1.3352    Y=              1.5728    Z=             -0.0698  Tot=              2.0643
 Quadrupole moment (field-independent basis, Debye-Ang):
   XX=            -17.3983   YY=            -19.8922   ZZ=            -20.1753
   XY=              1.0534   XZ=             -0.8815   YZ=             -0.6008
 Traceless Quadrupole moment (field-independent basis, Debye-Ang):
   XX=              1.7570   YY=             -0.7369   ZZ=             -1.0201
   XY=              1.0534   XZ=             -0.8815   YZ=             -0.6008
 Octapole moment (field-independent basis, Debye-Ang**2):
  XXX=             -0.5917  YYY=             -2.7265  ZZZ=              1.6585  XYY=              0.8255
  XXY=              0.3007  XXZ=             -1.2603  XZZ=             -0.3648  YZZ=             -1.3281
  YYZ=              0.0321  XYZ=             -0.4921
 Hexadecapole moment (field-independent basis, Debye-Ang**3):
 XXXX=           -152.5481 YYYY=            -55.5247 ZZZZ=            -37.3971 XXXY=              0.8560
 XXXZ=              3.9912 YYYX=             -3.5198 YYYZ=              0.9752 ZZZX=              1.8965
 ZZZY=              1.7356 XXYY=            -35.1388 XXZZ=            -32.1638 YYZZ=            -15.8194
 XXYZ=              1.1181 YYXZ=              0.7256 ZZXY=             -0.7977
 N-N= 8.664049994113D+01 E-N=-6.232222011801D+02  KE= 1.902705719516D+02
  Exact polarizability:  44.602  13.275  35.667  -5.624  -7.311  26.116
 Approx polarizability:  36.763   8.267  34.879  -0.659  -4.947  27.839
                          Isotropic Fermi Contact Couplings
        Atom                 a.u.       MegaHertz       Gauss      10(-4) cm-1
     1  C(13)             -0.00409      -4.59709      -1.64036      -1.53342
     2  H(1)               0.00354      15.83653       5.65087       5.28250
     3  H(1)              -0.00003      -0.11288      -0.04028      -0.03765
     4  H(1)               0.00096       4.29770       1.53353       1.43356
     5  O(17)              0.01691     -10.25242      -3.65832      -3.41984
     6  O(17)             -0.01252       7.59111       2.70870       2.53212
     7  H(1)              -0.03452    -154.30247     -55.05896     -51.46976
     8  H(1)               0.21840     976.20316     348.33356     325.62632
 --------------------------------------------------------
       Center         ----  Spin Dipole Couplings  ----
                      3XX-RR        3YY-RR        3ZZ-RR
 --------------------------------------------------------
     1   Atom        0.006811      0.001986     -0.008797
     2   Atom        0.007320     -0.001145     -0.006175
     3   Atom        0.006534     -0.003142     -0.003391
     4   Atom        0.005830     -0.004045     -0.001785
     5   Atom       -0.146152      0.207522     -0.061370
     6   Atom       -0.746820      0.539224      0.207596
     7   Atom       -0.068858      0.096210     -0.027352
     8   Atom        0.000391      0.000480     -0.000870
 --------------------------------------------------------
                        XY            XZ            YZ
 --------------------------------------------------------
     1   Atom       -0.000743     -0.001835     -0.000865
     2   Atom       -0.003220     -0.001566     -0.001540
     3   Atom        0.000431      0.000639     -0.000360
     4   Atom       -0.000718     -0.005148      0.000649
     5   Atom        0.166240     -0.151588     -0.289028
     6   Atom        0.359363     -0.308783     -1.196574
     7   Atom        0.115372     -0.075746     -0.150956
     8   Atom        0.000559      0.001321      0.000522
 --------------------------------------------------------


 ---------------------------------------------------------------------------------
              Anisotropic Spin Dipole Couplings in Principal Axis System
 ---------------------------------------------------------------------------------

       Atom             a.u.   MegaHertz   Gauss  10(-4) cm-1        Axes

              Baa    -0.0091    -1.220    -0.435    -0.407  0.1181  0.0852  0.9893
     1 C(13)  Bbb     0.0020     0.267     0.095     0.089  0.1146  0.9885 -0.0988
              Bcc     0.0071     0.953     0.340     0.318  0.9864 -0.1251 -0.1070
 
              Baa    -0.0070    -3.755    -1.340    -1.253  0.1766  0.3381  0.9244
     2 H(1)   Bbb    -0.0014    -0.766    -0.273    -0.256  0.2601  0.8897 -0.3752
              Bcc     0.0085     4.521     1.613     1.508  0.9493 -0.3067 -0.0692
 
              Baa    -0.0037    -1.977    -0.706    -0.660 -0.0750  0.5774  0.8130
     3 H(1)   Bbb    -0.0029    -1.540    -0.549    -0.514  0.0020  0.8154 -0.5789
              Bcc     0.0066     3.517     1.255     1.173  0.9972  0.0418  0.0623
 
              Baa    -0.0045    -2.420    -0.863    -0.807  0.3518 -0.5170  0.7804
     4 H(1)   Bbb    -0.0040    -2.113    -0.754    -0.705  0.2907  0.8528  0.4339
              Bcc     0.0085     4.533     1.617     1.512  0.8898 -0.0743 -0.4503
 
              Baa    -0.2734    19.781     7.058     6.598  0.5737  0.2671  0.7743
     5 O(17)  Bbb    -0.1983    14.347     5.120     4.786  0.7458 -0.5612 -0.3590
              Bcc     0.4716   -34.128   -12.178   -11.384  0.3387  0.7834 -0.5211
 
              Baa    -0.8411    60.858    21.716    20.300  0.8836 -0.4162 -0.2147
     6 O(17)  Bbb    -0.8331    60.282    21.510    20.108  0.4271  0.5281  0.7339
              Bcc     1.6741  -121.140   -43.226   -40.408  0.1921  0.7402 -0.6444
 
              Baa    -0.1295   -69.097   -24.656   -23.048 -0.4938  0.6435  0.5848
     7 H(1)   Bbb    -0.1266   -67.568   -24.110   -22.538  0.7768  0.0241  0.6293
              Bcc     0.2561   136.666    48.766    45.587  0.3909  0.7650 -0.5118
 
              Baa    -0.0017    -0.914    -0.326    -0.305 -0.5166 -0.0714  0.8533
     8 H(1)   Bbb     0.0000     0.012     0.004     0.004 -0.4847  0.8458 -0.2227
              Bcc     0.0017     0.902     0.322     0.301  0.7058  0.5286  0.4715
 

 ---------------------------------------------------------------------------------

 Calling FoFJK, ICntrl=  10100127 FMM=F ISym2X=0 I1Cent= 0 IOpClX= 1 NMat=1 NMatS=1 NMatT=0.
 -------------------------------------------------------------------
 Center     Atomic                   Forces (Hartrees/Bohr)
 Number     Number              X              Y              Z
 -------------------------------------------------------------------
      1        6           0.000003460   -0.000009173   -0.000000568
      2        1           0.000003251   -0.000000459   -0.000000861
      3        1          -0.000000603   -0.000000168    0.000000032
      4        1           0.000000206    0.000000390    0.000000381
      5        8          -0.000069947   -0.000013785   -0.000037608
      6        8           0.000069297    0.000034652    0.000030931
      7        1          -0.000013016   -0.000016727    0.000011742
      8        1           0.000007351    0.000005271   -0.000004050
 -------------------------------------------------------------------
 Cartesian Forces:  Max     0.000069947 RMS     0.000024367
 FormGI is forming the generalized inverse of G from B-inverse, IUseBI=4.

 GradGradGradGradGradGradGradGradGradGradGradGradGradGradGradGradGradGrad
 Berny optimization.
 Internal  Forces:  Max     0.000077851 RMS     0.000017768
 Search for a saddle point.
 Step number   1 out of a maximum of  100 on scan point     1 out of    37
 All quantities printed in internal units (Hartrees-Bohrs-Radians)
 Swapping is turned off.
 Second derivative matrix not updated -- analytic derivatives used.
 ITU=  0
     Eigenvalues ---   -0.05337   0.00652   0.01468   0.02377   0.08428
     Eigenvalues ---    0.08498   0.13005   0.15601   0.16676   0.18145
     Eigenvalues ---    0.20024   0.26983   0.32186   0.33627   0.34663
     Eigenvalues ---    0.35591   0.410311000.000001000.000001000.00000
     Eigenvalues --- 1000.00000
 Eigenvectors required to have negative eigenvalues:
                          R7        R6        R5        A8        A7
   1                    0.76004  -0.61347   0.17345  -0.10116  -0.04050
                          A3        R4        A10       A6        D3
   1                    0.03285  -0.02876  -0.02863   0.01489  -0.01469
 RFO step:  Lambda0=1.558077626D-08 Lambda=-2.32156034D-08.
 Linear search not attempted -- option 19 set.
 Iteration  1 RMS(Cart)=  0.00014577 RMS(Int)=  0.00000002
 Iteration  2 RMS(Cart)=  0.00000002 RMS(Int)=  0.00000000
 Iteration  1 RMS(Cart)=  0.00000000 RMS(Int)=  0.00000000
 Variable       Old X    -DE/DX   Delta X   Delta X   Delta X     New X
                                 (Linear)    (Quad)   (Total)
    R1        2.06282   0.00000   0.00000  -0.00000  -0.00000   2.06282
    R2        2.05486   0.00000   0.00000   0.00000   0.00000   2.05486
    R3        2.05596   0.00000   0.00000  -0.00000  -0.00000   2.05596
    R4        2.68721  -0.00001   0.00000  -0.00003  -0.00003   2.68718
    R5        2.64822   0.00008   0.00000   0.00018   0.00018   2.64839
    R6        2.08676  -0.00001   0.00000   0.00030   0.00030   2.08706
    R7        1.94780   0.00001   0.00000  -0.00050  -0.00050   1.94730
    A1        1.92009   0.00000   0.00000   0.00001   0.00001   1.92010
    A2        1.92017   0.00000   0.00000   0.00000   0.00000   1.92017
    A3        1.92731  -0.00001   0.00000  -0.00003  -0.00003   1.92728
    A4        1.92874   0.00000   0.00000   0.00000   0.00000   1.92874
    A5        1.83399   0.00000   0.00000   0.00000   0.00000   1.83399
    A6        1.93208   0.00000   0.00000   0.00001   0.00001   1.93209
    A7        1.88338  -0.00000   0.00000  -0.00002  -0.00002   1.88336
    A8        1.82978   0.00001   0.00000   0.00001   0.00001   1.82979
    A9        3.08141   0.00001   0.00000   0.00035   0.00035   3.08176
   A10        3.09035  -0.00000   0.00000  -0.00003  -0.00003   3.09032
    D1        1.15475  -0.00000   0.00000   0.00002   0.00002   1.15477
    D2       -3.05861  -0.00000   0.00000   0.00002   0.00002  -3.05859
    D3       -0.97608   0.00000   0.00000   0.00003   0.00003  -0.97605
    D4       -1.51334  -0.00001   0.00000   0.00000   0.00000  -1.51334
         Item               Value     Threshold  Converged?
 Maximum Force            0.000078     0.000450     YES
 RMS     Force            0.000018     0.000300     YES
 Maximum Displacement     0.000365     0.001800     YES
 RMS     Displacement     0.000146     0.001200     YES
 Predicted change in Energy=-3.817411D-09
 Optimization completed.
    -- Stationary point found.
                           ----------------------------
                           !   Optimized Parameters   !
                           ! (Angstroms and Degrees)  !
 --------------------------                            --------------------------
 ! Name  Definition              Value          Derivative Info.                !
 --------------------------------------------------------------------------------
 ! R1    R(1,2)                  1.0916         -DE/DX =    0.0                 !
 ! R2    R(1,3)                  1.0874         -DE/DX =    0.0                 !
 ! R3    R(1,4)                  1.088          -DE/DX =    0.0                 !
 ! R4    R(1,5)                  1.422          -DE/DX =    0.0                 !
 ! R5    R(5,6)                  1.4014         -DE/DX =    0.0001              !
 ! R6    R(6,7)                  1.1043         -DE/DX =    0.0                 !
 ! R7    R(7,8)                  1.0307         -DE/DX =    0.0                 !
 ! A1    A(2,1,3)              110.0132         -DE/DX =    0.0                 !
 ! A2    A(2,1,4)              110.0174         -DE/DX =    0.0                 !
 ! A3    A(2,1,5)              110.4267         -DE/DX =    0.0                 !
 ! A4    A(3,1,4)              110.5086         -DE/DX =    0.0                 !
 ! A5    A(3,1,5)              105.0797         -DE/DX =    0.0                 !
 ! A6    A(4,1,5)              110.7            -DE/DX =    0.0                 !
 ! A7    A(1,5,6)              107.9097         -DE/DX =    0.0                 !
 ! A8    A(5,6,7)              104.8386         -DE/DX =    0.0                 !
 ! A9    L(6,7,8,2,-1)         176.5519         -DE/DX =    0.0                 !
 ! A10   L(6,7,8,2,-2)         177.0641         -DE/DX =    0.0                 !
 ! D1    D(2,1,5,6)             66.1623         -DE/DX =    0.0                 !
 ! D2    D(3,1,5,6)           -175.2456         -DE/DX =    0.0                 !
 ! D3    D(4,1,5,6)            -55.925          -DE/DX =    0.0                 !
 ! D4    D(1,5,6,8)            -86.7079         -DE/DX =    0.0                 !
 --------------------------------------------------------------------------------
 Iteration  1 RMS(Cart)=  0.09959625 RMS(Int)=  0.00409732
 Iteration  2 RMS(Cart)=  0.00519429 RMS(Int)=  0.00000883
 Iteration  3 RMS(Cart)=  0.00001421 RMS(Int)=  0.00000000
 Iteration  4 RMS(Cart)=  0.00000000 RMS(Int)=  0.00000000
 Iteration  1 RMS(Cart)=  0.00000000 RMS(Int)=  0.00000000
 GradGradGradGradGradGradGradGradGradGradGradGradGradGradGradGradGradGrad

                          Input orientation:                          
 ---------------------------------------------------------------------
 Center     Atomic      Atomic             Coordinates (Angstroms)
 Number     Number       Type             X           Y           Z
 ---------------------------------------------------------------------
      1          6           0       -1.130343    0.272650    0.091996
      2          1           0       -0.952175    1.297679   -0.238386
      3          1           0       -2.031857   -0.117322   -0.374480
      4          1           0       -1.217616    0.240597    1.175983
      5          8           0       -0.084201   -0.581266   -0.353528
      6          8           0        1.093879   -0.197289    0.301305
      7          1           0        1.443322    0.696147   -0.245888
      8          1           0        1.717077    1.573257   -0.712357
 ---------------------------------------------------------------------
                    Distance matrix (angstroms):
                    1          2          3          4          5
     1  C    0.000000
     2  H    1.091596   0.000000
     3  H    1.087385   1.785067   0.000000
     4  H    1.087967   1.785587   1.787465   0.000000
     5  O    1.421997   2.072938   2.002260   2.073522   0.000000
     6  O    2.282940   2.590856   3.198955   2.509944   1.401470
     7  H    2.630070   2.469880   3.571434   3.051203   1.994166
     8  H    3.232084   2.724977   4.126346   3.735537   2.831137
                    6          7          8
     6  O    0.000000
     7  H    1.104427   0.000000
     8  H    2.133242   1.030465   0.000000
 Symmetry turned off by external request.
 Stoichiometry    CH5O2(2)
 Framework group  C1[X(CH5O2)]
 Deg. of freedom    18
 Full point group                 C1      NOp   1
 Rotational constants (GHZ):          31.0987290           9.7495905           8.7398318
 Standard basis: CC-pVTZ (5D, 7F)
   160 basis functions,   241 primitive gaussians,   180 cartesian basis functions
    14 alpha electrons       13 beta electrons
       nuclear repulsion energy        86.7712473998 Hartrees.
 NAtoms=    8 NActive=    8 NUniq=    8 SFac= 1.00D+00 NAtFMM=   60 NAOKFM=F Big=F
 Integral buffers will be    131072 words long.
 Raffenetti 2 integral format.
 Two-electron integral symmetry is turned off.
 Nuclear repulsion after empirical dispersion term =       86.7688495179 Hartrees.
 One-electron integrals computed using PRISM.
 NBasis=   160 RedAO= T EigKep=  1.84D-03  NBF=   160
 NBsUse=   160 1.00D-06 EigRej= -1.00D+00 NBFU=   160
 Initial guess from the checkpoint file:  "/localscratch/347858/Gau-79321.chk"
 B after Tr=     0.017785   -0.063144   -0.018262
         Rot=    0.999953   -0.000047   -0.004167    0.008798 Ang=  -1.12 deg.
 Initial guess <Sx>= 0.0000 <Sy>= 0.0000 <Sz>= 0.5000 <S**2>= 0.7685 S= 0.5092
 ExpMin= 1.03D-01 ExpMax= 1.53D+04 ExpMxC= 5.22D+02 IAcc=3 IRadAn=         5 AccDes= 0.00D+00
 Harris functional with IExCor=  419 and IRadAn=       5 diagonalized for initial guess.
 HarFok:  IExCor=  419 AccDes= 0.00D+00 IRadAn=         5 IDoV= 1 UseB2=F ITyADJ=14
 ICtDFT=  3500011 ScaDFX=  1.000000  1.000000  1.000000  1.000000
 FoFCou: FMM=F IPFlag=           0 FMFlag=      100000 FMFlg1=           0
         NFxFlg=           0 DoJE=T BraDBF=F KetDBF=T FulRan=T
         wScrn=  0.000000 ICntrl=       500 IOpCl=  0 I1Cent=   200000004 NGrid=           0
         NMat0=    1 NMatS0=      1 NMatT0=    0 NMatD0=    1 NMtDS0=    0 NMtDT0=    0
 Symmetry not used in FoFCou.
 Keep R1 and R2 ints in memory in canonical form, NReq=206285696.
 Requested convergence on RMS density matrix=1.00D-08 within 500 cycles.
 Requested convergence on MAX density matrix=1.00D-06.
 Requested convergence on             energy=1.00D-06.
 No special actions if energy rises.
 Integral accuracy reduced to 1.0D-05 until final iterations.
 Initial convergence to 1.0D-05 achieved.  Increase integral accuracy.
 SCF Done:  E(UB2PLYPD3) =  -191.061989287     A.U. after   17 cycles
            NFock= 17  Conv=0.73D-08     -V/T= 2.0042
 <Sx>= 0.0000 <Sy>= 0.0000 <Sz>= 0.5000 <S**2>= 0.7686 S= 0.5092
 <L.S>=  0.00000000000    
 Annihilation of the first spin contaminant:
 S**2 before annihilation     0.7686,   after     0.7501
 DoSCS=T DFT=T ScalE2(SS,OS)=  0.270000  0.270000
 ExpMin= 1.03D-01 ExpMax= 1.53D+04 ExpMxC= 5.22D+02 IAcc=3 IRadAn=         5 AccDes= 0.00D+00
 HarFok:  IExCor=  205 AccDes= 0.00D+00 IRadAn=         5 IDoV=-2 UseB2=F ITyADJ=14
 ICtDFT= 12500011 ScaDFX=  1.000000  1.000000  1.000000  1.000000
 Range of M.O.s used for correlation:     4   160
 NBasis=   160 NAE=    14 NBE=    13 NFC=     3 NFV=     0
 NROrb=    157 NOA=    11 NOB=    10 NVA=   146 NVB=   147

 **** Warning!!: The largest alpha MO coefficient is  0.11988954D+02


 **** Warning!!: The largest beta MO coefficient is  0.11988856D+02

 DoSCS=T DFT=T ScalE2(SS,OS)=  0.270000  0.270000
 Fully direct method using O(ONN) memory.
 JobTyp=2 Pass  1:  I=   4 to  14 NPSUse= 40 ParTrn=T ParDer=T DoDerP=T.
 JobTyp=3 Pass  1:  I=   4 to  13 NPSUse= 40 ParTrn=T ParDer=T DoDerP=T.
 Spin components of T(2) and E(2):
     alpha-alpha T2 =       0.3313423985D-01 E2=     -0.2708933326D-01
     alpha-beta  T2 =       0.2128578446D+00 E2=     -0.1686513028D+00
     beta-beta   T2 =       0.3882327967D-01 E2=     -0.2753201083D-01
 (S**2,0)=  0.76858D+00           (S**2,1)=  0.74428D+00
 Scaling Projection term by:   0.270000
 E(PUHF)=      -0.19106766630D+03        E(PMP2)=      -0.19128579465D+03
 E2(B2PLYPD3) =    -0.2232726469D+00 E(B2PLYPD3) =    -0.19128526193404D+03
          IDoAtm=11111111
          Differentiating once with respect to electric field.
                with respect to dipole field.
          Differentiating once with respect to nuclear coordinates.
 Keep R1 and R2 ints in memory in canonical form, NReq=206291324.
          There are     1 degrees of freedom in the 1st order CPHF.  IDoFFX=0 NUNeed=     1.
 LinEq1:  Iter=  0 NonCon=     1 RMS=1.49D-03 Max=5.88D-02 NDo=     1
 AX will form     1 AO Fock derivatives at one time.
 LinEq1:  Iter=  1 NonCon=     1 RMS=3.97D-04 Max=6.03D-03 NDo=     1
 LinEq1:  Iter=  2 NonCon=     1 RMS=2.66D-04 Max=5.35D-03 NDo=     1
 LinEq1:  Iter=  3 NonCon=     1 RMS=1.37D-04 Max=2.34D-03 NDo=     1
 LinEq1:  Iter=  4 NonCon=     1 RMS=7.60D-05 Max=1.36D-03 NDo=     1
 LinEq1:  Iter=  5 NonCon=     1 RMS=4.16D-05 Max=8.36D-04 NDo=     1
 LinEq1:  Iter=  6 NonCon=     1 RMS=2.80D-05 Max=8.13D-04 NDo=     1
 LinEq1:  Iter=  7 NonCon=     1 RMS=8.66D-06 Max=9.30D-05 NDo=     1
 LinEq1:  Iter=  8 NonCon=     1 RMS=2.96D-06 Max=4.00D-05 NDo=     1
 LinEq1:  Iter=  9 NonCon=     1 RMS=8.76D-07 Max=1.87D-05 NDo=     1
 LinEq1:  Iter= 10 NonCon=     1 RMS=2.40D-07 Max=4.81D-06 NDo=     1
 LinEq1:  Iter= 11 NonCon=     1 RMS=7.04D-08 Max=1.12D-06 NDo=     1
 LinEq1:  Iter= 12 NonCon=     1 RMS=1.79D-08 Max=2.30D-07 NDo=     1
 LinEq1:  Iter= 13 NonCon=     1 RMS=5.36D-09 Max=7.34D-08 NDo=     1
 LinEq1:  Iter= 14 NonCon=     1 RMS=1.50D-09 Max=2.30D-08 NDo=     1
 LinEq1:  Iter= 15 NonCon=     1 RMS=3.93D-10 Max=4.25D-09 NDo=     1
 LinEq1:  Iter= 16 NonCon=     1 RMS=1.00D-10 Max=1.10D-09 NDo=     1
 LinEq1:  Iter= 17 NonCon=     0 RMS=2.99D-11 Max=3.89D-10 NDo=     1
 Linear equations converged to 1.000D-10 1.000D-09 after    17 iterations.
 End of Minotr F.D. properties file   721 does not exist.
 End of Minotr F.D. properties file   722 does not exist.
 End of Minotr F.D. properties file   788 does not exist.
 Calling FoFJK, ICntrl=  10002127 FMM=F ISym2X=0 I1Cent= 0 IOpClX= 1 NMat=1 NMatS=1 NMatT=0.
 -------------------------------------------------------------------
 Center     Atomic                   Forces (Hartrees/Bohr)
 Number     Number              X              Y              Z
 -------------------------------------------------------------------
      1        6          -0.000753078   -0.002299496    0.000844705
      2        1           0.000399853    0.000266377   -0.000281349
      3        1          -0.000081000    0.000203552   -0.000020124
      4        1           0.000092034    0.000176969    0.000101558
      5        8           0.000434033    0.001965096   -0.000927352
      6        8          -0.000962199   -0.000263850    0.001161715
      7        1           0.000596524    0.000182239   -0.000437999
      8        1           0.000273833   -0.000230888   -0.000441155
 -------------------------------------------------------------------
 Cartesian Forces:  Max     0.002299496 RMS     0.000794136

 GradGradGradGradGradGradGradGradGradGradGradGradGradGradGradGradGradGrad
 Berny optimization.
 FormGI is forming the generalized inverse of G from B-inverse, IUseBI=4.
 Internal  Forces:  Max     0.003133949 RMS     0.000781246
 Search for a saddle point.
 Step number   1 out of a maximum of  100 on scan point     2 out of    37
 All quantities printed in internal units (Hartrees-Bohrs-Radians)
 Swapping is turned off.
 Second derivative matrix not updated -- first step.
 ITU=  0
     Eigenvalues ---   -0.05337   0.00652   0.01468   0.02377   0.08428
     Eigenvalues ---    0.08498   0.13005   0.15601   0.16676   0.18145
     Eigenvalues ---    0.20024   0.26983   0.32186   0.33627   0.34663
     Eigenvalues ---    0.35591   0.410311000.000001000.000001000.00000
     Eigenvalues --- 1000.00000
 Eigenvectors required to have negative eigenvalues:
                          R7        R6        R5        A8        A7
   1                    0.76004  -0.61347   0.17345  -0.10116  -0.04050
                          A3        R4        A10       A6        D3
   1                    0.03285  -0.02876  -0.02863   0.01489  -0.01469
 RFO step:  Lambda0=2.632938558D-06 Lambda=-2.79693643D-05.
 Linear search not attempted -- option 19 set.
 Iteration  1 RMS(Cart)=  0.00682316 RMS(Int)=  0.00009082
 Iteration  2 RMS(Cart)=  0.00009650 RMS(Int)=  0.00000162
 Iteration  3 RMS(Cart)=  0.00000000 RMS(Int)=  0.00000162
 Iteration  1 RMS(Cart)=  0.00000000 RMS(Int)=  0.00000000
 Variable       Old X    -DE/DX   Delta X   Delta X   Delta X     New X
                                 (Linear)    (Quad)   (Total)
    R1        2.06282   0.00040   0.00000   0.00153   0.00153   2.06434
    R2        2.05486   0.00000   0.00000  -0.00019  -0.00019   2.05468
    R3        2.05596   0.00009   0.00000   0.00028   0.00028   2.05624
    R4        2.68718  -0.00054   0.00000  -0.00200  -0.00200   2.68518
    R5        2.64839  -0.00003   0.00000   0.00002   0.00002   2.64841
    R6        2.08706   0.00064   0.00000  -0.00158  -0.00158   2.08548
    R7        1.94730   0.00011   0.00000   0.00709   0.00709   1.95439
    A1        1.92010   0.00002   0.00000  -0.00055  -0.00055   1.91955
    A2        1.92017   0.00004   0.00000  -0.00118  -0.00118   1.91899
    A3        1.92728  -0.00077   0.00000  -0.00361  -0.00361   1.92367
    A4        1.92874   0.00012   0.00000   0.00182   0.00182   1.93056
    A5        1.83399   0.00044   0.00000   0.00229   0.00229   1.83628
    A6        1.93209   0.00016   0.00000   0.00135   0.00135   1.93344
    A7        1.88336   0.00094   0.00000   0.00237   0.00237   1.88573
    A8        1.82979   0.00019   0.00000   0.00021   0.00021   1.83001
    A9        3.08176  -0.00041   0.00000  -0.02486  -0.02486   3.05690
   A10        3.09032  -0.00027   0.00000  -0.02046  -0.02046   3.06986
    D1        1.15477  -0.00004   0.00000   0.00530   0.00530   1.16007
    D2       -3.05859  -0.00016   0.00000   0.00412   0.00411  -3.05448
    D3       -0.97605   0.00032   0.00000   0.00833   0.00833  -0.96772
    D4       -1.33881  -0.00313   0.00000   0.00000   0.00000  -1.33881
         Item               Value     Threshold  Converged?
 Maximum Force            0.000939     0.000450     NO 
 RMS     Force            0.000387     0.000300     NO 
 Maximum Displacement     0.016693     0.001800     NO 
 RMS     Displacement     0.006836     0.001200     NO 
 Predicted change in Energy=-1.268484D-05
 GradGradGradGradGradGradGradGradGradGradGradGradGradGradGradGradGradGrad

                          Input orientation:                          
 ---------------------------------------------------------------------
 Center     Atomic      Atomic             Coordinates (Angstroms)
 Number     Number       Type             X           Y           Z
 ---------------------------------------------------------------------
      1          6           0       -1.132025    0.271812    0.091998
      2          1           0       -0.954244    1.296899   -0.241073
      3          1           0       -2.033924   -0.118806   -0.372963
      4          1           0       -1.216897    0.243237    1.176422
      5          8           0       -0.084409   -0.578172   -0.354198
      6          8           0        1.093486   -0.196884    0.302555
      7          1           0        1.452156    0.688002   -0.250834
      8          1           0        1.713942    1.578366   -0.707260
 ---------------------------------------------------------------------
                    Distance matrix (angstroms):
                    1          2          3          4          5
     1  C    0.000000
     2  H    1.092404   0.000000
     3  H    1.087287   1.785308   0.000000
     4  H    1.088115   1.785632   1.788631   0.000000
     5  O    1.420937   2.070098   2.002992   2.073653   0.000000
     6  O    2.284055   2.592319   3.200486   2.509027   1.401478
     7  H    2.639837   2.482260   3.580308   3.059202   1.993718
     8  H    3.231939   2.723192   4.127790   3.731038   2.830085
                    6          7          8
     6  O    0.000000
     7  H    1.103588   0.000000
     8  H    2.134527   1.034218   0.000000
 Symmetry turned off by external request.
 Stoichiometry    CH5O2(2)
 Framework group  C1[X(CH5O2)]
 Deg. of freedom    18
 Full point group                 C1      NOp   1
 Rotational constants (GHZ):          31.1673656           9.7357868           8.7381130
 Standard basis: CC-pVTZ (5D, 7F)
   160 basis functions,   241 primitive gaussians,   180 cartesian basis functions
    14 alpha electrons       13 beta electrons
       nuclear repulsion energy        86.7722529589 Hartrees.
 NAtoms=    8 NActive=    8 NUniq=    8 SFac= 1.00D+00 NAtFMM=   60 NAOKFM=F Big=F
 Integral buffers will be    131072 words long.
 Raffenetti 2 integral format.
 Two-electron integral symmetry is turned off.
 Nuclear repulsion after empirical dispersion term =       86.7698557674 Hartrees.
 One-electron integrals computed using PRISM.
 NBasis=   160 RedAO= T EigKep=  1.84D-03  NBF=   160
 NBsUse=   160 1.00D-06 EigRej= -1.00D+00 NBFU=   160
 Initial guess from the checkpoint file:  "/localscratch/347858/Gau-79321.chk"
 B after Tr=    -0.000902    0.001404    0.000322
         Rot=    1.000000   -0.000350    0.000178   -0.000099 Ang=  -0.05 deg.
 Initial guess <Sx>= 0.0000 <Sy>= 0.0000 <Sz>= 0.5000 <S**2>= 0.7686 S= 0.5093
 Keep R1 and R2 ints in memory in canonical form, NReq=206285696.
 Requested convergence on RMS density matrix=1.00D-08 within 500 cycles.
 Requested convergence on MAX density matrix=1.00D-06.
 Requested convergence on             energy=1.00D-06.
 No special actions if energy rises.
 SCF Done:  E(UB2PLYPD3) =  -191.062050153     A.U. after   12 cycles
            NFock= 12  Conv=0.73D-08     -V/T= 2.0042
 <Sx>= 0.0000 <Sy>= 0.0000 <Sz>= 0.5000 <S**2>= 0.7685 S= 0.5092
 <L.S>=  0.00000000000    
 Annihilation of the first spin contaminant:
 S**2 before annihilation     0.7685,   after     0.7501
 DoSCS=T DFT=T ScalE2(SS,OS)=  0.270000  0.270000
 ExpMin= 1.03D-01 ExpMax= 1.53D+04 ExpMxC= 5.22D+02 IAcc=3 IRadAn=         5 AccDes= 0.00D+00
 HarFok:  IExCor=  205 AccDes= 0.00D+00 IRadAn=         5 IDoV=-2 UseB2=F ITyADJ=14
 ICtDFT= 12500011 ScaDFX=  1.000000  1.000000  1.000000  1.000000
 Range of M.O.s used for correlation:     4   160
 NBasis=   160 NAE=    14 NBE=    13 NFC=     3 NFV=     0
 NROrb=    157 NOA=    11 NOB=    10 NVA=   146 NVB=   147

 **** Warning!!: The largest alpha MO coefficient is  0.11984913D+02


 **** Warning!!: The largest beta MO coefficient is  0.11984814D+02

 DoSCS=T DFT=T ScalE2(SS,OS)=  0.270000  0.270000
 Fully direct method using O(ONN) memory.
 JobTyp=2 Pass  1:  I=   4 to  14 NPSUse= 40 ParTrn=T ParDer=T DoDerP=T.
 JobTyp=3 Pass  1:  I=   4 to  13 NPSUse= 40 ParTrn=T ParDer=T DoDerP=T.
 Spin components of T(2) and E(2):
     alpha-alpha T2 =       0.3313059214D-01 E2=     -0.2708532506D-01
     alpha-beta  T2 =       0.2127379369D+00 E2=     -0.1686136392D+00
     beta-beta   T2 =       0.3877441465D-01 E2=     -0.2752535667D-01
 (S**2,0)=  0.76850D+00           (S**2,1)=  0.74433D+00
 Scaling Projection term by:   0.270000
 E(PUHF)=      -0.19106768678D+03        E(PMP2)=      -0.19128580436D+03
 E2(B2PLYPD3) =    -0.2232243209D+00 E(B2PLYPD3) =    -0.19128527447385D+03
          IDoAtm=11111111
          Differentiating once with respect to electric field.
                with respect to dipole field.
          Differentiating once with respect to nuclear coordinates.
 Keep R1 and R2 ints in memory in canonical form, NReq=206291324.
          There are     1 degrees of freedom in the 1st order CPHF.  IDoFFX=0 NUNeed=     1.
 LinEq1:  Iter=  0 NonCon=     1 RMS=1.48D-03 Max=5.90D-02 NDo=     1
 AX will form     1 AO Fock derivatives at one time.
 LinEq1:  Iter=  1 NonCon=     1 RMS=3.95D-04 Max=6.01D-03 NDo=     1
 LinEq1:  Iter=  2 NonCon=     1 RMS=2.62D-04 Max=5.26D-03 NDo=     1
 LinEq1:  Iter=  3 NonCon=     1 RMS=1.35D-04 Max=2.20D-03 NDo=     1
 LinEq1:  Iter=  4 NonCon=     1 RMS=7.40D-05 Max=1.28D-03 NDo=     1
 LinEq1:  Iter=  5 NonCon=     1 RMS=4.02D-05 Max=6.99D-04 NDo=     1
 LinEq1:  Iter=  6 NonCon=     1 RMS=2.71D-05 Max=7.42D-04 NDo=     1
 LinEq1:  Iter=  7 NonCon=     1 RMS=8.50D-06 Max=1.00D-04 NDo=     1
 LinEq1:  Iter=  8 NonCon=     1 RMS=2.91D-06 Max=3.72D-05 NDo=     1
 LinEq1:  Iter=  9 NonCon=     1 RMS=8.51D-07 Max=1.70D-05 NDo=     1
 LinEq1:  Iter= 10 NonCon=     1 RMS=2.32D-07 Max=4.49D-06 NDo=     1
 LinEq1:  Iter= 11 NonCon=     1 RMS=6.66D-08 Max=9.57D-07 NDo=     1
 LinEq1:  Iter= 12 NonCon=     1 RMS=1.60D-08 Max=2.54D-07 NDo=     1
 LinEq1:  Iter= 13 NonCon=     1 RMS=4.71D-09 Max=8.20D-08 NDo=     1
 LinEq1:  Iter= 14 NonCon=     1 RMS=1.42D-09 Max=2.15D-08 NDo=     1
 LinEq1:  Iter= 15 NonCon=     1 RMS=3.85D-10 Max=4.09D-09 NDo=     1
 LinEq1:  Iter= 16 NonCon=     1 RMS=9.87D-11 Max=1.08D-09 NDo=     1
 LinEq1:  Iter= 17 NonCon=     0 RMS=2.95D-11 Max=3.78D-10 NDo=     1
 Linear equations converged to 1.000D-10 1.000D-09 after    17 iterations.
 End of Minotr F.D. properties file   721 does not exist.
 End of Minotr F.D. properties file   722 does not exist.
 End of Minotr F.D. properties file   788 does not exist.
 Calling FoFJK, ICntrl=  10002127 FMM=F ISym2X=0 I1Cent= 0 IOpClX= 1 NMat=1 NMatS=1 NMatT=0.
 -------------------------------------------------------------------
 Center     Atomic                   Forces (Hartrees/Bohr)
 Number     Number              X              Y              Z
 -------------------------------------------------------------------
      1        6          -0.000244859   -0.000750467    0.000866727
      2        1          -0.000001512    0.000004234   -0.000000516
      3        1          -0.000006574    0.000001866   -0.000003005
      4        1           0.000002852    0.000001184   -0.000001700
      5        8           0.000481432    0.000816393   -0.001310111
      6        8          -0.000636652    0.000348143    0.000926118
      7        1          -0.000019891   -0.000027986    0.000026366
      8        1           0.000425204   -0.000393367   -0.000503880
 -------------------------------------------------------------------
 Cartesian Forces:  Max     0.001310111 RMS     0.000498525

 GradGradGradGradGradGradGradGradGradGradGradGradGradGradGradGradGradGrad
 Berny optimization.
 FormGI is forming the generalized inverse of G from B-inverse, IUseBI=4.
 Internal  Forces:  Max     0.002977344 RMS     0.000649792
 Search for a saddle point.
 Step number   2 out of a maximum of  100 on scan point     2 out of    37
 All quantities printed in internal units (Hartrees-Bohrs-Radians)
 Swapping is turned off.
 Update second derivatives using D2CorX and points    1    2
 ITU=  0  0
     Eigenvalues ---   -0.05364   0.00649   0.01532   0.02388   0.08425
     Eigenvalues ---    0.08498   0.13005   0.15590   0.16677   0.18147
     Eigenvalues ---    0.20023   0.26983   0.32187   0.33628   0.34663
     Eigenvalues ---    0.35592   0.410291000.000001000.000001000.00000
     Eigenvalues --- 1000.00000
 Eigenvectors required to have negative eigenvalues:
                          R7        R6        R5        A8        A7
   1                    0.76030  -0.61290   0.17305  -0.10066  -0.04030
                          A10       A3        R4        A9        A6
   1                   -0.03506   0.03252  -0.02872  -0.02120   0.01491
 RFO step:  Lambda0=1.335826521D-08 Lambda=-2.62578601D-08.
 Linear search not attempted -- option 19 set.
 Iteration  1 RMS(Cart)=  0.00033983 RMS(Int)=  0.00000013
 Iteration  2 RMS(Cart)=  0.00000014 RMS(Int)=  0.00000000
 Iteration  1 RMS(Cart)=  0.00000000 RMS(Int)=  0.00000000
 Variable       Old X    -DE/DX   Delta X   Delta X   Delta X     New X
                                 (Linear)    (Quad)   (Total)
    R1        2.06434   0.00000   0.00000   0.00001   0.00001   2.06436
    R2        2.05468   0.00001   0.00000   0.00001   0.00001   2.05469
    R3        2.05624  -0.00000   0.00000  -0.00001  -0.00001   2.05623
    R4        2.68518   0.00001   0.00000   0.00005   0.00005   2.68524
    R5        2.64841  -0.00000   0.00000  -0.00016  -0.00016   2.64825
    R6        2.08548  -0.00001   0.00000   0.00034   0.00034   2.08582
    R7        1.95439   0.00003   0.00000  -0.00026  -0.00026   1.95413
    A1        1.91955  -0.00000   0.00000  -0.00002  -0.00002   1.91954
    A2        1.91899  -0.00000   0.00000  -0.00001  -0.00001   1.91898
    A3        1.92367   0.00000   0.00000  -0.00002  -0.00002   1.92365
    A4        1.93056   0.00000   0.00000   0.00004   0.00004   1.93060
    A5        1.83628   0.00001   0.00000   0.00004   0.00004   1.83632
    A6        1.93344  -0.00000   0.00000  -0.00004  -0.00004   1.93340
    A7        1.88573   0.00001   0.00000   0.00006   0.00006   1.88579
    A8        1.83001   0.00002   0.00000   0.00019   0.00019   1.83019
    A9        3.05690   0.00002   0.00000   0.00097   0.00097   3.05787
   A10        3.06986   0.00000   0.00000   0.00046   0.00046   3.07032
    D1        1.16007  -0.00000   0.00000   0.00010   0.00010   1.16017
    D2       -3.05448  -0.00000   0.00000   0.00009   0.00009  -3.05439
    D3       -0.96772   0.00000   0.00000   0.00015   0.00015  -0.96757
    D4       -1.33881  -0.00298   0.00000   0.00000   0.00000  -1.33881
         Item               Value     Threshold  Converged?
 Maximum Force            0.000034     0.000450     YES
 RMS     Force            0.000011     0.000300     YES
 Maximum Displacement     0.001032     0.001800     YES
 RMS     Displacement     0.000340     0.001200     YES
 Predicted change in Energy=-6.449796D-09
 Optimization completed.
    -- Stationary point found.
                           ----------------------------
                           !   Optimized Parameters   !
                           ! (Angstroms and Degrees)  !
 --------------------------                            --------------------------
 ! Name  Definition              Value          Derivative Info.                !
 --------------------------------------------------------------------------------
 ! R1    R(1,2)                  1.0924         -DE/DX =    0.0                 !
 ! R2    R(1,3)                  1.0873         -DE/DX =    0.0                 !
 ! R3    R(1,4)                  1.0881         -DE/DX =    0.0                 !
 ! R4    R(1,5)                  1.4209         -DE/DX =    0.0                 !
 ! R5    R(5,6)                  1.4015         -DE/DX =    0.0                 !
 ! R6    R(6,7)                  1.1036         -DE/DX =    0.0                 !
 ! R7    R(7,8)                  1.0342         -DE/DX =    0.0                 !
 ! A1    A(2,1,3)              109.9823         -DE/DX =    0.0                 !
 ! A2    A(2,1,4)              109.95           -DE/DX =    0.0                 !
 ! A3    A(2,1,5)              110.2182         -DE/DX =    0.0                 !
 ! A4    A(3,1,4)              110.6127         -DE/DX =    0.0                 !
 ! A5    A(3,1,5)              105.211          -DE/DX =    0.0                 !
 ! A6    A(4,1,5)              110.778          -DE/DX =    0.0                 !
 ! A7    A(1,5,6)              108.0445         -DE/DX =    0.0                 !
 ! A8    A(5,6,7)              104.8516         -DE/DX =    0.0                 !
 ! A9    L(6,7,8,2,-1)         175.1473         -DE/DX =    0.0                 !
 ! A10   L(6,7,8,2,-2)         175.8901         -DE/DX =    0.0                 !
 ! D1    D(2,1,5,6)             66.467          -DE/DX =    0.0                 !
 ! D2    D(3,1,5,6)           -175.0089         -DE/DX =    0.0                 !
 ! D3    D(4,1,5,6)            -55.4462         -DE/DX =    0.0                 !
 ! D4    D(1,5,6,8)            -76.7079         -DE/DX =   -0.003               !
 --------------------------------------------------------------------------------
 Iteration  1 RMS(Cart)=  0.10127180 RMS(Int)=  0.00419844
 Iteration  2 RMS(Cart)=  0.00532471 RMS(Int)=  0.00001021
 Iteration  3 RMS(Cart)=  0.00001623 RMS(Int)=  0.00000000
 Iteration  4 RMS(Cart)=  0.00000000 RMS(Int)=  0.00000000
 Iteration  1 RMS(Cart)=  0.00000000 RMS(Int)=  0.00000000
 GradGradGradGradGradGradGradGradGradGradGradGradGradGradGradGradGradGrad

                          Input orientation:                          
 ---------------------------------------------------------------------
 Center     Atomic      Atomic             Coordinates (Angstroms)
 Number     Number       Type             X           Y           Z
 ---------------------------------------------------------------------
      1          6           0       -1.096875    0.281287    0.077581
      2          1           0       -0.888207    1.279236   -0.314737
      3          1           0       -2.025224   -0.096876   -0.343568
      4          1           0       -1.154152    0.313845    1.163694
      5          8           0       -0.095164   -0.632671   -0.347154
      6          8           0        1.113473   -0.264847    0.259318
      7          1           0        1.398204    0.683230   -0.228930
      8          1           0        1.586031    1.621251   -0.621558
 ---------------------------------------------------------------------
                    Distance matrix (angstroms):
                    1          2          3          4          5
     1  C    0.000000
     2  H    1.092410   0.000000
     3  H    1.087293   1.785308   0.000000
     4  H    1.088109   1.785627   1.788658   0.000000
     5  O    1.420966   2.070110   2.003052   2.073646   0.000000
     6  O    2.284060   2.592384   3.200485   2.508965   1.401395
     7  H    2.545767   2.364373   3.513056   2.930933   1.993921
     8  H    3.079332   2.516538   4.008790   3.522079   2.825222
                    6          7          8
     6  O    0.000000
     7  H    1.103770   0.000000
     8  H    2.134624   1.034079   0.000000
 Symmetry turned off by external request.
 Stoichiometry    CH5O2(2)
 Framework group  C1[X(CH5O2)]
 Deg. of freedom    18
 Full point group                 C1      NOp   1
 Rotational constants (GHZ):          30.5353633          10.0086086           8.7197151
 Standard basis: CC-pVTZ (5D, 7F)
   160 basis functions,   241 primitive gaussians,   180 cartesian basis functions
    14 alpha electrons       13 beta electrons
       nuclear repulsion energy        86.9172742876 Hartrees.
 NAtoms=    8 NActive=    8 NUniq=    8 SFac= 1.00D+00 NAtFMM=   60 NAOKFM=F Big=F
 Integral buffers will be    131072 words long.
 Raffenetti 2 integral format.
 Two-electron integral symmetry is turned off.
 Nuclear repulsion after empirical dispersion term =       86.9148366194 Hartrees.
 One-electron integrals computed using PRISM.
 NBasis=   160 RedAO= T EigKep=  1.83D-03  NBF=   160
 NBsUse=   160 1.00D-06 EigRej= -1.00D+00 NBFU=   160
 Initial guess from the checkpoint file:  "/localscratch/347858/Gau-79321.chk"
 B after Tr=     0.018028   -0.056407   -0.022632
         Rot=    0.999953    0.000206   -0.005233    0.008206 Ang=   1.12 deg.
 Initial guess <Sx>= 0.0000 <Sy>= 0.0000 <Sz>= 0.5000 <S**2>= 0.7685 S= 0.5092
 Keep R1 and R2 ints in memory in canonical form, NReq=206285696.
 Requested convergence on RMS density matrix=1.00D-08 within 500 cycles.
 Requested convergence on MAX density matrix=1.00D-06.
 Requested convergence on             energy=1.00D-06.
 No special actions if energy rises.
 SCF Done:  E(UB2PLYPD3) =  -191.060989998     A.U. after   14 cycles
            NFock= 14  Conv=0.96D-08     -V/T= 2.0041
 <Sx>= 0.0000 <Sy>= 0.0000 <Sz>= 0.5000 <S**2>= 0.7685 S= 0.5092
 <L.S>=  0.00000000000    
 Annihilation of the first spin contaminant:
 S**2 before annihilation     0.7685,   after     0.7501
 DoSCS=T DFT=T ScalE2(SS,OS)=  0.270000  0.270000
 ExpMin= 1.03D-01 ExpMax= 1.53D+04 ExpMxC= 5.22D+02 IAcc=3 IRadAn=         5 AccDes= 0.00D+00
 HarFok:  IExCor=  205 AccDes= 0.00D+00 IRadAn=         5 IDoV=-2 UseB2=F ITyADJ=14
 ICtDFT= 12500011 ScaDFX=  1.000000  1.000000  1.000000  1.000000
 Range of M.O.s used for correlation:     4   160
 NBasis=   160 NAE=    14 NBE=    13 NFC=     3 NFV=     0
 NROrb=    157 NOA=    11 NOB=    10 NVA=   146 NVB=   147

 **** Warning!!: The largest alpha MO coefficient is  0.11992385D+02


 **** Warning!!: The largest beta MO coefficient is  0.11992270D+02

 DoSCS=T DFT=T ScalE2(SS,OS)=  0.270000  0.270000
 Fully direct method using O(ONN) memory.
 JobTyp=2 Pass  1:  I=   4 to  14 NPSUse= 40 ParTrn=T ParDer=T DoDerP=T.
 JobTyp=3 Pass  1:  I=   4 to  13 NPSUse= 40 ParTrn=T ParDer=T DoDerP=T.
 Spin components of T(2) and E(2):
     alpha-alpha T2 =       0.3316900112D-01 E2=     -0.2710911627D-01
     alpha-beta  T2 =       0.2130775803D+00 E2=     -0.1687351261D+00
     beta-beta   T2 =       0.3906093122D-01 E2=     -0.2761189210D-01
 (S**2,0)=  0.76846D+00           (S**2,1)=  0.74427D+00
 Scaling Projection term by:   0.270000
 E(PUHF)=      -0.19106662681D+03        E(PMP2)=      -0.19128497337D+03
 E2(B2PLYPD3) =    -0.2234561344D+00 E(B2PLYPD3) =    -0.19128444613239D+03
          IDoAtm=11111111
          Differentiating once with respect to electric field.
                with respect to dipole field.
          Differentiating once with respect to nuclear coordinates.
 Keep R1 and R2 ints in memory in canonical form, NReq=206291324.
          There are     1 degrees of freedom in the 1st order CPHF.  IDoFFX=0 NUNeed=     1.
 LinEq1:  Iter=  0 NonCon=     1 RMS=1.50D-03 Max=5.68D-02 NDo=     1
 AX will form     1 AO Fock derivatives at one time.
 LinEq1:  Iter=  1 NonCon=     1 RMS=4.06D-04 Max=6.26D-03 NDo=     1
 LinEq1:  Iter=  2 NonCon=     1 RMS=2.76D-04 Max=6.37D-03 NDo=     1
 LinEq1:  Iter=  3 NonCon=     1 RMS=1.46D-04 Max=3.00D-03 NDo=     1
 LinEq1:  Iter=  4 NonCon=     1 RMS=8.86D-05 Max=1.91D-03 NDo=     1
 LinEq1:  Iter=  5 NonCon=     1 RMS=4.89D-05 Max=1.19D-03 NDo=     1
 LinEq1:  Iter=  6 NonCon=     1 RMS=3.13D-05 Max=9.35D-04 NDo=     1
 LinEq1:  Iter=  7 NonCon=     1 RMS=9.26D-06 Max=9.74D-05 NDo=     1
 LinEq1:  Iter=  8 NonCon=     1 RMS=3.13D-06 Max=3.67D-05 NDo=     1
 LinEq1:  Iter=  9 NonCon=     1 RMS=9.41D-07 Max=1.61D-05 NDo=     1
 LinEq1:  Iter= 10 NonCon=     1 RMS=2.68D-07 Max=3.79D-06 NDo=     1
 LinEq1:  Iter= 11 NonCon=     1 RMS=8.08D-08 Max=1.41D-06 NDo=     1
 LinEq1:  Iter= 12 NonCon=     1 RMS=2.08D-08 Max=2.85D-07 NDo=     1
 LinEq1:  Iter= 13 NonCon=     1 RMS=5.73D-09 Max=7.70D-08 NDo=     1
 LinEq1:  Iter= 14 NonCon=     1 RMS=1.50D-09 Max=2.22D-08 NDo=     1
 LinEq1:  Iter= 15 NonCon=     1 RMS=4.02D-10 Max=5.77D-09 NDo=     1
 LinEq1:  Iter= 16 NonCon=     1 RMS=1.05D-10 Max=1.40D-09 NDo=     1
 LinEq1:  Iter= 17 NonCon=     0 RMS=3.20D-11 Max=4.35D-10 NDo=     1
 Linear equations converged to 1.000D-10 1.000D-09 after    17 iterations.
 End of Minotr F.D. properties file   721 does not exist.
 End of Minotr F.D. properties file   722 does not exist.
 End of Minotr F.D. properties file   788 does not exist.
 Calling FoFJK, ICntrl=  10002127 FMM=F ISym2X=0 I1Cent= 0 IOpClX= 1 NMat=1 NMatS=1 NMatT=0.
 -------------------------------------------------------------------
 Center     Atomic                   Forces (Hartrees/Bohr)
 Number     Number              X              Y              Z
 -------------------------------------------------------------------
      1        6          -0.001086417   -0.003286951    0.001853818
      2        1           0.000475263    0.000286632   -0.000300712
      3        1          -0.000054263    0.000186321    0.000005434
      4        1           0.000051409    0.000193300    0.000130869
      5        8           0.000233966    0.002843690   -0.002803072
      6        8          -0.000845620    0.000351917    0.002598677
      7        1           0.000408818   -0.000238425   -0.000351257
      8        1           0.000816844   -0.000336484   -0.001133756
 -------------------------------------------------------------------
 Cartesian Forces:  Max     0.003286951 RMS     0.001321584

 GradGradGradGradGradGradGradGradGradGradGradGradGradGradGradGradGradGrad
 Berny optimization.
 FormGI is forming the generalized inverse of G from B-inverse, IUseBI=4.
 Internal  Forces:  Max     0.006620359 RMS     0.001521664
 Search for a saddle point.
 Step number   1 out of a maximum of  100 on scan point     3 out of    37
 All quantities printed in internal units (Hartrees-Bohrs-Radians)
 Swapping is turned off.
 Second derivative matrix not updated -- first step.
 ITU=  0
     Eigenvalues ---   -0.05364   0.00649   0.01532   0.02388   0.08424
     Eigenvalues ---    0.08498   0.13005   0.15590   0.16677   0.18147
     Eigenvalues ---    0.20023   0.26983   0.32187   0.33628   0.34663
     Eigenvalues ---    0.35592   0.410291000.000001000.000001000.00000
     Eigenvalues --- 1000.00000
 Eigenvectors required to have negative eigenvalues:
                          R7        R6        R5        A8        A7
   1                    0.76030  -0.61290   0.17305  -0.10066  -0.04030
                          A10       A3        R4        A9        A6
   1                   -0.03506   0.03252  -0.02872  -0.02120   0.01491
 RFO step:  Lambda0=1.373529733D-07 Lambda=-3.43049384D-05.
 Linear search not attempted -- option 19 set.
 Iteration  1 RMS(Cart)=  0.00813372 RMS(Int)=  0.00009862
 Iteration  2 RMS(Cart)=  0.00010470 RMS(Int)=  0.00000169
 Iteration  3 RMS(Cart)=  0.00000000 RMS(Int)=  0.00000169
 Iteration  1 RMS(Cart)=  0.00000000 RMS(Int)=  0.00000000
 Variable       Old X    -DE/DX   Delta X   Delta X   Delta X     New X
                                 (Linear)    (Quad)   (Total)
    R1        2.06436   0.00046   0.00000   0.00162   0.00162   2.06597
    R2        2.05469  -0.00002   0.00000  -0.00026  -0.00026   2.05442
    R3        2.05623   0.00013   0.00000   0.00047   0.00047   2.05670
    R4        2.68524  -0.00075   0.00000  -0.00256  -0.00256   2.68268
    R5        2.64825   0.00075   0.00000   0.00063   0.00063   2.64888
    R6        2.08582   0.00039   0.00000   0.00389   0.00389   2.08972
    R7        1.95413   0.00037   0.00000  -0.00040  -0.00040   1.95373
    A1        1.91954   0.00008   0.00000   0.00003   0.00003   1.91957
    A2        1.91898   0.00002   0.00000  -0.00144  -0.00144   1.91754
    A3        1.92365  -0.00083   0.00000  -0.00392  -0.00392   1.91973
    A4        1.93060   0.00008   0.00000   0.00147   0.00146   1.93206
    A5        1.83632   0.00043   0.00000   0.00208   0.00208   1.83840
    A6        1.93340   0.00022   0.00000   0.00189   0.00189   1.93529
    A7        1.88579   0.00127   0.00000   0.00359   0.00359   1.88938
    A8        1.83019   0.00044   0.00000   0.00173   0.00173   1.83192
    A9        3.05787  -0.00024   0.00000  -0.01715  -0.01715   3.04072
   A10        3.07032  -0.00050   0.00000  -0.02897  -0.02897   3.04135
    D1        1.16017  -0.00009   0.00000   0.00124   0.00124   1.16141
    D2       -3.05439  -0.00018   0.00000   0.00046   0.00046  -3.05393
    D3       -0.96757   0.00029   0.00000   0.00444   0.00444  -0.96313
    D4       -1.16427  -0.00662   0.00000   0.00000   0.00000  -1.16427
         Item               Value     Threshold  Converged?
 Maximum Force            0.001265     0.000450     NO 
 RMS     Force            0.000490     0.000300     NO 
 Maximum Displacement     0.020003     0.001800     NO 
 RMS     Displacement     0.008139     0.001200     NO 
 Predicted change in Energy=-1.710478D-05
 GradGradGradGradGradGradGradGradGradGradGradGradGradGradGradGradGradGrad

                          Input orientation:                          
 ---------------------------------------------------------------------
 Center     Atomic      Atomic             Coordinates (Angstroms)
 Number     Number       Type             X           Y           Z
 ---------------------------------------------------------------------
      1          6           0       -1.100325    0.279590    0.078432
      2          1           0       -0.891432    1.277530   -0.316170
      3          1           0       -2.028219   -0.099614   -0.342426
      4          1           0       -1.157102    0.315808    1.164703
      5          8           0       -0.096375   -0.630031   -0.345797
      6          8           0        1.113208   -0.262689    0.259847
[...]
      1          6           0       -1.162819    0.231766   -0.177193
      2          1           0       -0.658208   -0.227914   -1.029072
      3          1           0       -1.959462   -0.417469    0.178120
      4          1           0       -1.561067    1.203793   -0.460431
      5          8           0       -0.268846    0.355559    0.921632
      6          8           0        0.728795    1.272811    0.564364
      7          1           0        1.513848    0.663287    0.083527
      8          1           0        2.205846    0.102621   -0.436300
 ---------------------------------------------------------------------
                    Distance matrix (angstroms):
                    1          2          3          4          5
     1  C    0.000000
     2  H    1.091621   0.000000
     3  H    1.087379   1.785079   0.000000
     4  H    1.087963   1.785579   1.787445   0.000000
     5  O    1.421945   2.072990   2.002140   2.073508   0.000000
     6  O    2.282956   2.591330   3.198900   2.509669   1.401528
     7  H    2.723735   2.598066   3.638800   3.169092   1.993769
     8  H    3.381083   2.943372   4.242382   3.924640   2.834089
                    6          7          8
     6  O    0.000000
     7  H    1.104097   0.000000
     8  H    2.133624   1.031227   0.000000
 Symmetry turned off by external request.
 Stoichiometry    CH5O2(2)
 Framework group  C1[X(CH5O2)]
 Deg. of freedom    18
 Full point group                 C1      NOp   1
 Rotational constants (GHZ):          31.9772151           9.4882064           8.7409013

 **********************************************************************

            Population analysis using the SCF Density.

 **********************************************************************

 Alpha  occ. eigenvalues --  -19.81091 -19.80386 -10.67095  -1.29889  -1.04231
 Alpha  occ. eigenvalues --   -0.79186  -0.64773  -0.57408  -0.56092  -0.51835
 Alpha  occ. eigenvalues --   -0.45686  -0.41684  -0.38671  -0.34700
 Alpha virt. eigenvalues --    0.08806   0.11683   0.14526   0.14991   0.17499
 Alpha virt. eigenvalues --    0.20777   0.28843   0.30438   0.32401   0.42409
 Alpha virt. eigenvalues --    0.48609   0.49004   0.50336   0.51202   0.53101
 Alpha virt. eigenvalues --    0.53970   0.56015   0.57838   0.66646   0.67613
 Alpha virt. eigenvalues --    0.70113   0.77089   0.80384   0.83470   0.89892
 Alpha virt. eigenvalues --    0.92615   0.95264   1.00360   1.02648   1.05570
 Alpha virt. eigenvalues --    1.07297   1.13116   1.14598   1.16749   1.19028
 Alpha virt. eigenvalues --    1.30302   1.35343   1.37515   1.38331   1.45047
 Alpha virt. eigenvalues --    1.51044   1.60877   1.65134   1.76961   1.86396
 Alpha virt. eigenvalues --    1.96086   2.00314   2.05138   2.06924   2.10326
 Alpha virt. eigenvalues --    2.17995   2.22342   2.31904   2.35988   2.41891
 Alpha virt. eigenvalues --    2.47658   2.49366   2.56888   2.70739   2.82005
 Alpha virt. eigenvalues --    2.88680   2.91085   2.95387   3.01137   3.01768
 Alpha virt. eigenvalues --    3.06524   3.10102   3.11643   3.13830   3.15147
 Alpha virt. eigenvalues --    3.18410   3.25078   3.28991   3.39719   3.40996
 Alpha virt. eigenvalues --    3.47472   3.50698   3.51804   3.55595   3.57663
 Alpha virt. eigenvalues --    3.58284   3.61488   3.62168   3.64776   3.73281
 Alpha virt. eigenvalues --    3.82127   3.83017   3.85222   3.86456   3.92060
 Alpha virt. eigenvalues --    3.94984   3.95471   3.99922   4.08563   4.09785
 Alpha virt. eigenvalues --    4.16554   4.17642   4.23206   4.33948   4.34191
 Alpha virt. eigenvalues --    4.43437   4.51392   4.66354   4.69263   4.71425
 Alpha virt. eigenvalues --    4.81107   4.81950   4.92310   4.95934   4.98538
 Alpha virt. eigenvalues --    5.01357   5.05971   5.22963   5.29229   5.29927
 Alpha virt. eigenvalues --    5.33924   5.36173   5.37731   5.38303   5.45955
 Alpha virt. eigenvalues --    5.66580   5.77044   5.88470   5.91459   5.94638
 Alpha virt. eigenvalues --    6.06980   6.09472   6.24671   6.36222   6.48103
 Alpha virt. eigenvalues --    6.50906   6.61287   6.70603   6.75189   6.80808
 Alpha virt. eigenvalues --    6.93388   7.02580   7.05645   7.10206   7.40597
 Alpha virt. eigenvalues --    7.41946   7.59546   7.74136   9.97425  10.95901
 Alpha virt. eigenvalues --   13.35660
  Beta  occ. eigenvalues --  -19.80200 -19.79633 -10.67102  -1.27991  -1.01563
  Beta  occ. eigenvalues --   -0.78738  -0.60636  -0.55964  -0.55763  -0.48741
  Beta  occ. eigenvalues --   -0.44820  -0.37688  -0.35734
  Beta virt. eigenvalues --   -0.08439   0.08930   0.12444   0.14589   0.15075
  Beta virt. eigenvalues --    0.18642   0.22824   0.29719   0.30784   0.33766
  Beta virt. eigenvalues --    0.42885   0.49071   0.50436   0.51347   0.52317
  Beta virt. eigenvalues --    0.55081   0.55390   0.57330   0.59228   0.67058
  Beta virt. eigenvalues --    0.68368   0.72200   0.77532   0.82049   0.84481
  Beta virt. eigenvalues --    0.90198   0.93011   0.96319   1.01283   1.02975
  Beta virt. eigenvalues --    1.05905   1.07788   1.14127   1.15097   1.18433
  Beta virt. eigenvalues --    1.19270   1.30548   1.35468   1.37537   1.38391
  Beta virt. eigenvalues --    1.45922   1.51392   1.60959   1.66011   1.77182
  Beta virt. eigenvalues --    1.87886   1.96607   2.01208   2.07191   2.08626
  Beta virt. eigenvalues --    2.12289   2.18152   2.23964   2.32671   2.37208
  Beta virt. eigenvalues --    2.42629   2.48112   2.55040   2.57397   2.70822
  Beta virt. eigenvalues --    2.82076   2.88760   2.91107   2.95787   3.01553
  Beta virt. eigenvalues --    3.03351   3.08469   3.10619   3.12152   3.14966
  Beta virt. eigenvalues --    3.15453   3.18758   3.28680   3.32542   3.39782
  Beta virt. eigenvalues --    3.41422   3.48424   3.51519   3.52030   3.56395
  Beta virt. eigenvalues --    3.59070   3.60294   3.62617   3.63888   3.66358
  Beta virt. eigenvalues --    3.74801   3.83826   3.86215   3.88303   3.89225
  Beta virt. eigenvalues --    3.93468   3.94906   3.96207   4.01469   4.09934
  Beta virt. eigenvalues --    4.10860   4.16724   4.17691   4.23470   4.34140
  Beta virt. eigenvalues --    4.34302   4.43718   4.54105   4.68520   4.70448
  Beta virt. eigenvalues --    4.73251   4.81606   4.82412   4.92432   4.97117
  Beta virt. eigenvalues --    4.99089   5.01567   5.06417   5.23850   5.29444
  Beta virt. eigenvalues --    5.30385   5.34142   5.36886   5.38263   5.38826
  Beta virt. eigenvalues --    5.46291   5.67277   5.77853   5.90213   5.91852
  Beta virt. eigenvalues --    5.94870   6.07427   6.11290   6.25048   6.36500
  Beta virt. eigenvalues --    6.50910   6.52807   6.62565   6.72135   6.76984
  Beta virt. eigenvalues --    6.82882   6.94647   7.03145   7.07031   7.12046
  Beta virt. eigenvalues --    7.40947   7.43918   7.61350   7.75150   9.97977
  Beta virt. eigenvalues --   10.97066  13.35662
          Condensed to atoms (all electrons):
               1          2          3          4          5          6
     1  C    4.583949   0.396619   0.393832   0.409035   0.304282  -0.043082
     2  H    0.396619   0.663649  -0.030028  -0.059699  -0.045794  -0.002395
     3  H    0.393832  -0.030028   0.587949  -0.029716  -0.025680   0.006839
     4  H    0.409035  -0.059699  -0.029716   0.634109  -0.042240   0.002945
     5  O    0.304282  -0.045794  -0.025680  -0.042240   7.927492   0.076627
     6  O   -0.043082  -0.002395   0.006839   0.002945   0.076627   7.993754
     7  H   -0.000873   0.005713  -0.000726  -0.000549  -0.024768   0.221999
     8  H   -0.003308   0.002146   0.000196  -0.000139   0.001856  -0.062113
               7          8
     1  C   -0.000873  -0.003308
     2  H    0.005713   0.002146
     3  H   -0.000726   0.000196
     4  H   -0.000549  -0.000139
     5  O   -0.024768   0.001856
     6  O    0.221999  -0.062113
     7  H    0.436184   0.163583
     8  H    0.163583   0.943785
          Atomic-Atomic Spin Densities.
               1          2          3          4          5          6
     1  C   -0.005325   0.006905   0.000546  -0.004193  -0.000888  -0.002522
     2  H    0.006905  -0.001719  -0.000707  -0.000896  -0.000173   0.003500
     3  H    0.000546  -0.000707  -0.001467   0.001055  -0.000018  -0.000180
     4  H   -0.004193  -0.000896   0.001055   0.006233  -0.001111  -0.000198
     5  O   -0.000888  -0.000173  -0.000018  -0.001111   0.064110  -0.040559
     6  O   -0.002522   0.003500  -0.000180  -0.000198  -0.040559   0.482641
     7  H    0.003026  -0.003134   0.000005   0.001102   0.005601   0.009240
     8  H    0.000394  -0.005376   0.000114   0.001345   0.011499  -0.071597
               7          8
     1  C    0.003026   0.000394
     2  H   -0.003134  -0.005376
     3  H    0.000005   0.000114
     4  H    0.001102   0.001345
     5  O    0.005601   0.011499
     6  O    0.009240  -0.071597
     7  H   -0.151944   0.008988
     8  H    0.008988   0.763938
 Mulliken charges and spin densities:
               1          2
     1  C   -0.040454  -0.002057
     2  H    0.069789  -0.001600
     3  H    0.097333  -0.000653
     4  H    0.086252   0.003337
     5  O   -0.171776   0.038460
     6  O   -0.194574   0.380325
     7  H    0.199437  -0.127116
     8  H   -0.046006   0.709305
 Sum of Mulliken charges =  -0.00000   1.00000
 Mulliken charges and spin densities with hydrogens summed into heavy atoms:
               1          2
     1  C    0.212919  -0.000972
     5  O   -0.171776   0.038460
     6  O   -0.041144   0.962513
 Electronic spatial extent (au):  <R**2>=            237.9578
 Charge=             -0.0000 electrons
 Dipole moment (field-independent basis, Debye):
    X=             -0.7504    Y=             -0.8856    Z=             -1.7064  Tot=              2.0638
 Quadrupole moment (field-independent basis, Debye-Ang):
   XX=            -16.5065   YY=            -21.3235   ZZ=            -21.6143
   XY=             -0.4929   XZ=             -0.1835   YZ=             -1.0293
 Traceless Quadrupole moment (field-independent basis, Debye-Ang):
   XX=              3.3083   YY=             -1.5087   ZZ=             -1.7996
   XY=             -0.4929   XZ=             -0.1835   YZ=             -1.0293
 Octapole moment (field-independent basis, Debye-Ang**2):
  XXX=              7.6842  YYY=            -34.7387  ZZZ=            -18.7138  XYY=              0.7473
  XXY=            -10.3999  XXZ=             -5.7994  XZZ=              2.4993  YZZ=            -12.1103
  YYZ=             -6.6835  XYZ=             -0.0924
 Hexadecapole moment (field-independent basis, Debye-Ang**3):
 XXXX=           -143.5776 YYYY=            -87.9727 ZZZZ=            -65.5509 XXXY=             -7.6985
 XXXZ=             -6.3676 YYYX=            -13.2210 YYYZ=            -16.9392 ZZZX=             -4.6625
 ZZZY=            -15.8266 XXYY=            -37.8156 XXZZ=            -36.6783 YYZZ=            -25.7863
 XXYZ=             -6.7294 YYXZ=             -2.6112 ZZXY=             -4.0154
 N-N= 8.663839027232D+01 E-N=-6.232185848894D+02  KE= 1.902703795165D+02
                          Isotropic Fermi Contact Couplings
        Atom                 a.u.       MegaHertz       Gauss      10(-4) cm-1
     1  C(13)             -0.00408      -4.58909      -1.63750      -1.53075
     2  H(1)               0.00354      15.81552       5.64337       5.27549
     3  H(1)              -0.00002      -0.10286      -0.03670      -0.03431
     4  H(1)               0.00096       4.26958       1.52349       1.42418
     5  O(17)              0.01688     -10.23171      -3.65093      -3.41293
     6  O(17)             -0.01255       7.60531       2.71377       2.53686
     7  H(1)              -0.03451    -154.23578     -55.03516     -51.44752
     8  H(1)               0.21857     977.00066     348.61813     325.89234
 --------------------------------------------------------
       Center         ----  Spin Dipole Couplings  ----
                      3XX-RR        3YY-RR        3ZZ-RR
 --------------------------------------------------------
     1   Atom        0.005974     -0.007067      0.001093
     2   Atom        0.004956     -0.004156     -0.000799
     3   Atom        0.005046     -0.001827     -0.003220
     4   Atom        0.006420     -0.004355     -0.002065
     5   Atom        0.093429     -0.044581     -0.048848
     6   Atom       -0.057908      0.410097     -0.352188
     7   Atom        0.068172     -0.021575     -0.046597
     8   Atom       -0.000088     -0.000186      0.000274
 --------------------------------------------------------
                        XY            XZ            YZ
 --------------------------------------------------------
     1   Atom        0.002384      0.001126      0.004247
     2   Atom        0.002452      0.004062      0.004228
     3   Atom        0.003298      0.001190      0.000898
     4   Atom       -0.001125      0.004494     -0.000655
     5   Atom       -0.275077     -0.208568      0.204322
     6   Atom       -0.984728     -0.617131      0.773803
     7   Atom       -0.143035     -0.127743      0.093528
     8   Atom        0.001390     -0.000958     -0.000096
 --------------------------------------------------------


 ---------------------------------------------------------------------------------
              Anisotropic Spin Dipole Couplings in Principal Axis System
 ---------------------------------------------------------------------------------

       Atom             a.u.   MegaHertz   Gauss  10(-4) cm-1        Axes

              Baa    -0.0091    -1.219    -0.435    -0.407 -0.1180  0.9210 -0.3713
     1 C(13)  Bbb     0.0020     0.267     0.095     0.089 -0.4185  0.2929  0.8597
              Bcc     0.0071     0.952     0.340     0.318  0.9005  0.2569  0.3508
 
              Baa    -0.0070    -3.753    -1.339    -1.252  0.0265  0.8192 -0.5729
     2 H(1)   Bbb    -0.0014    -0.766    -0.273    -0.255 -0.5946  0.4736  0.6497
              Bcc     0.0085     4.519     1.612     1.507  0.8035  0.3234  0.4997
 
              Baa    -0.0037    -1.975    -0.705    -0.659  0.1072 -0.5766  0.8100
     3 H(1)   Bbb    -0.0029    -1.538    -0.549    -0.513 -0.3873  0.7261  0.5681
              Bcc     0.0066     3.513     1.254     1.172  0.9157  0.3746  0.1455
 
              Baa    -0.0045    -2.417    -0.863    -0.806 -0.0240  0.9545  0.2973
     4 H(1)   Bbb    -0.0040    -2.111    -0.753    -0.704 -0.4069 -0.2810  0.8692
              Bcc     0.0085     4.529     1.616     1.511  0.9132 -0.1001  0.3951
 
              Baa    -0.2728    19.739     7.044     6.584  0.4096  0.8309 -0.3766
     5 O(17)  Bbb    -0.1977    14.309     5.106     4.773  0.6145  0.0537  0.7871
              Bcc     0.4705   -34.048   -12.149   -11.357  0.6742 -0.5538 -0.4886
 
              Baa    -0.8401    60.787    21.690    20.276  0.7461  0.1933  0.6372
     6 O(17)  Bbb    -0.8321    60.209    21.484    20.084  0.3639  0.6830 -0.6333
              Bcc     1.6722  -120.996   -43.174   -40.360 -0.5576  0.7044  0.4392
 
              Baa    -0.1294   -69.062   -24.643   -23.037  0.4142 -0.2172  0.8839
     7 H(1)   Bbb    -0.1266   -67.546   -24.102   -22.531  0.5640  0.8234 -0.0620
              Bcc     0.2560   136.607    48.745    45.567  0.7144 -0.5242 -0.4635
 
              Baa    -0.0017    -0.921    -0.328    -0.307  0.7145 -0.6259  0.3125
     8 H(1)   Bbb     0.0000     0.018     0.006     0.006  0.1458  0.5701  0.8086
              Bcc     0.0017     0.902     0.322     0.301  0.6842  0.5322 -0.4986
 

 ---------------------------------------------------------------------------------

 1\1\GINC-N21\Scan\UB2PLYPD3-FC\CC-pVTZ\C1H5O2(2)\ROOT\13-Jun-2019\0\\#
  opt=(calcfc,ts,noeigentest,maxcyc=500,modredundant) uB2PLYPD3/cc-pvtz
  scf=maxcyc=500 nosymm\\Title Card Required\\0,2\C,-1.1628194669,0.231
 7659214,-0.1771927857\H,-0.6582082421,-0.2279137326,-1.0290719644\H,-1
 .9594622804,-0.4174694262,0.1781202335\H,-1.5610674498,1.2037933972,-0
 .46043149\O,-0.2688463814,0.3555592814,0.9216320337\O,0.7287953642,1.2
 728105771,0.5643637332\H,1.5138481132,0.6632870572,0.0835273077\H,2.20
 58463432,0.1026209245,-0.436300068\\Version=ES64L-G16RevB.01\HF=-191.0
 624727,-191.0620502,-191.0610052,-191.0592543,-191.0568623,-191.053987
 7,-191.05094,-191.0481962,-191.046518,-191.046316,-191.0474553,-191.04
 99323,-191.0529479,-191.0559245,-191.058507,-191.0604811,-191.0617647,
 -191.062392,-191.0624341,-191.0619697,-191.0610671,-191.0598077,-191.0
 58297,-191.05667,-191.0551136,-191.0539067,-191.0533465,-191.0533042,-
 191.0536264,-191.0546466,-191.0561222,-191.0577494,-191.0593166,-191.0
 606739,-191.0617074,-191.0623298,-191.0624733\MP2=-191.2855297,-191.28
 52745,-191.2844625,-191.2830006,-191.2808148,-191.2779396,-191.2745712
 ,-191.2711083,-191.2683325,-191.2678028,-191.2700238,-191.2733707,-191
 .2768292,-191.2799039,-191.2823369,-191.2840415,-191.2850641,-191.2855
 004,-191.2854266,-191.2848907,-191.2839296,-191.2825838,-191.2809068,-
 191.2789727,-191.2768969,-191.2748897,-191.2733882,-191.2731224,-191.2
 742875,-191.2761881,-191.2782717,-191.2802703,-191.2820453,-191.283511
 ,-191.2846085,-191.2852936,-191.2855296\PUHF=-191.0681313,-191.0676868
 ,-191.0666833,-191.0650732,-191.0628807,-191.0602723,-191.0575441,-191
 .0551052,-191.0535999,-191.0534009,-191.0544519,-191.0566433,-191.0593
 381,-191.0620267,-191.064384,-191.0661987,-191.0674105,-191.0680374,-1
 91.0681504,-191.0678172,-191.0671025,-191.0660743,-191.0648243,-191.06
 34658,-191.0621589,-191.0611212,-191.0605749,-191.0605132,-191.0608649
 ,-191.0617624,-191.0630087,-191.0643595,-191.065672,-191.0667829,-191.
 0676134,-191.0680806,-191.068125\PMP2-0=-191.2860632,-191.2858044,-191
 .2849956,-191.2835477,-191.2813833,-191.2785375,-191.2752035,-191.2717
 698,-191.2690058,-191.2684746,-191.2706931,-191.2740137,-191.2774386,-
 191.2804817,-191.2828901,-191.2845784,-191.2855946,-191.2860322,-191.2
 859668,-191.2854452,-191.2845043,-191.2831834,-191.2815347,-191.279632
 ,-191.2775898,-191.275615,-191.2741363,-191.2738743,-191.2750221,-191.
 2768923,-191.2789425,-191.2809076,-191.2826543,-191.2840936,-191.28516
 93,-191.2858376,-191.2860625\S2=0.768555,0.768495,0.768646,0.769118,0.
 769781,0.770629,0.771525,0.772118,0.772035,0.771848,0.772218,0.771765,
 0.770938,0.770057,0.769317,0.768782,0.768532,0.76852,0.768727,0.769107
 ,0.769655,0.770317,0.771039,0.771771,0.772437,0.772886,0.772924,0.7728
 76,0.772948,0.77262,0.772011,0.771257,0.770563,0.769862,0.769279,0.768
 823,0.768538\S2-1=0.744349,0.744329,0.744265,0.744133,0.743989,0.74383
 2,0.743658,0.743482,0.7434,0.743414,0.743438,0.743598,0.743773,0.74393
 7,0.744087,0.744224,0.744311,0.744348,0.744327,0.744257,0.744147,0.744
 013,0.743879,0.74379,0.743809,0.744041,0.744517,0.744659,0.744181,0.74
 3858,0.743779,0.743845,0.743963,0.744103,0.744224,0.744311,0.744357\S2
 A=0.750069,0.75007,0.750073,0.75008,0.75009,0.750099,0.750108,0.750112
 ,0.750108,0.750107,0.750112,0.75011,0.750103,0.750093,0.750083,0.75007
 5,0.750071,0.750069,0.750071,0.750074,0.75008,0.750088,0.750098,0.7501
 12,0.75013,0.750155,0.750182,0.750188,0.750164,0.750138,0.750118,0.750
 102,0.750091,0.750082,0.750076,0.750071,0.750069\RMSD=7.245e-09,7.280e
 -09,7.768e-09,2.046e-09,5.632e-09,3.255e-09,6.494e-09,8.506e-09,4.907e
 -09,6.640e-09,6.609e-09,7.419e-09,3.981e-09,3.725e-09,5.227e-09,2.412e
 -09,4.350e-09,7.310e-09,9.706e-09,6.581e-09,4.458e-09,5.677e-09,8.119e
 -09,7.084e-09,5.290e-09,5.133e-09,4.132e-09,1.114e-09,3.350e-09,4.805e
 -09,5.430e-09,9.967e-09,9.619e-09,6.604e-09,8.839e-09,6.395e-09,6.418e
 -09\PG=C01 [X(C1H5O2)]\\@


 NOTHING RESEMBLES A NEW PHENOMENON AS MUCH AS A MISTAKE.

                               -- ENRICO FERMI (?)
 Job cpu time:       1 days  8 hours  4 minutes 11.8 seconds.
 Elapsed time:       0 days  1 hours  6 minutes 27.9 seconds.
 File lengths (MBytes):  RWF=   5207 Int=      0 D2E=      0 Chk=      6 Scr=      1
 Normal termination of Gaussian 16 at Thu Jun 13 05:27:06 2019.
