 Entering Gaussian System, Link 0=g16
 Initial command:
 /ichec/packages/gaussian/16b01/l1.exe "/localscratch/347858/Gau-86908.inp" -scrdir="/localscratch/347858/"
 Entering Link 1 = /ichec/packages/gaussian/16b01/l1.exe PID=     87646.
  
 Copyright (c) 1988-2017, Gaussian, Inc.  All Rights Reserved.
  
 This is part of the Gaussian(R) 16 program.  It is based on
 the Gaussian(R) 09 system (copyright 2009, Gaussian, Inc.),
 the Gaussian(R) 03 system (copyright 2003, Gaussian, Inc.),
 the Gaussian(R) 98 system (copyright 1998, Gaussian, Inc.),
 the Gaussian(R) 94 system (copyright 1995, Gaussian, Inc.),
 the Gaussian 92(TM) system (copyright 1992, Gaussian, Inc.),
 the Gaussian 90(TM) system (copyright 1990, Gaussian, Inc.),
 the Gaussian 88(TM) system (copyright 1988, Gaussian, Inc.),
 the Gaussian 86(TM) system (copyright 1986, Carnegie Mellon
 University), and the Gaussian 82(TM) system (copyright 1983,
 Carnegie Mellon University). Gaussian is a federally registered
 trademark of Gaussian, Inc.
  
 This software contains proprietary and confidential information,
 including trade secrets, belonging to Gaussian, Inc.
  
 This software is provided under written license and may be
 used, copied, transmitted, or stored only in accord with that
 written license.
  
 The following legend is applicable only to US Government
 contracts under FAR:
  
                    RESTRICTED RIGHTS LEGEND
  
 Use, reproduction and disclosure by the US Government is
 subject to restrictions as set forth in subparagraphs (a)
 and (c) of the Commercial Computer Software - Restricted
 Rights clause in FAR 52.227-19.
  
 Gaussian, Inc.
 340 Quinnipiac St., Bldg. 40, Wallingford CT 06492
  
  
 ---------------------------------------------------------------
 Warning -- This program may not be used in any manner that
 competes with the business of Gaussian, Inc. or will provide
 assistance to any competitor of Gaussian, Inc.  The licensee
 of this program is prohibited from giving any competitor of
 Gaussian, Inc. access to this program.  By using this program,
 the user acknowledges that Gaussian, Inc. is engaged in the
 business of creating and licensing software in the field of
 computational chemistry and represents and warrants to the
 licensee that it is not a competitor of Gaussian, Inc. and that
 it will not use this program in any manner prohibited above.
 ---------------------------------------------------------------
  

 Cite this work as:
 Gaussian 16, Revision B.01,
 M. J. Frisch, G. W. Trucks, H. B. Schlegel, G. E. Scuseria, 
 M. A. Robb, J. R. Cheeseman, G. Scalmani, V. Barone, 
 G. A. Petersson, H. Nakatsuji, X. Li, M. Caricato, A. V. Marenich, 
 J. Bloino, B. G. Janesko, R. Gomperts, B. Mennucci, H. P. Hratchian, 
 J. V. Ortiz, A. F. Izmaylov, J. L. Sonnenberg, D. Williams-Young, 
 F. Ding, F. Lipparini, F. Egidi, J. Goings, B. Peng, A. Petrone, 
 T. Henderson, D. Ranasinghe, V. G. Zakrzewski, J. Gao, N. Rega, 
 G. Zheng, W. Liang, M. Hada, M. Ehara, K. Toyota, R. Fukuda, 
 J. Hasegawa, M. Ishida, T. Nakajima, Y. Honda, O. Kitao, H. Nakai, 
 T. Vreven, K. Throssell, J. A. Montgomery, Jr., J. E. Peralta, 
 F. Ogliaro, M. J. Bearpark, J. J. Heyd, E. N. Brothers, K. N. Kudin, 
 V. N. Staroverov, T. A. Keith, R. Kobayashi, J. Normand, 
 K. Raghavachari, A. P. Rendell, J. C. Burant, S. S. Iyengar, 
 J. Tomasi, M. Cossi, J. M. Millam, M. Klene, C. Adamo, R. Cammi, 
 J. W. Ochterski, R. L. Martin, K. Morokuma, O. Farkas, 
 J. B. Foresman, and D. J. Fox, Gaussian, Inc., Wallingford CT, 2016.
 
 ******************************************
 Gaussian 16:  ES64L-G16RevB.01 20-Dec-2017
                13-Jun-2019 
 ******************************************
 %mem=80GB
 %nproc=40
 Will use up to   40 processors via shared memory.
 ----------------------------------------------------------------------
 # opt=(calcfc,ts,noeigentest,maxcyc=500,modredundant) uB2PLYPD3/cc-pvt
 z scf=maxcyc=500 nosymm
 ----------------------------------------------------------------------
 1/5=1,6=500,10=4,11=1,18=120,38=1/1,3;
 2/9=110,12=2,15=1,17=6,18=5,40=1/2;
 3/5=16,6=1,11=2,25=1,30=1,71=2,74=-60,116=2,140=1/1,2,3;
 4//1;
 5/5=2,7=500,38=5/2;
 8/6=3,8=1,10=1,19=11,30=-1/1;
 9/15=3,16=-3/6;
 11/6=1,8=1,15=11,17=12,24=-1,27=1,28=-2,29=300,31=1,32=6,42=3/1,2,10;
 10/6=2,21=1,31=1/2;
 8/6=4,8=1,10=1,19=11,30=-1/11,4;
 10/5=1,20=4,31=1/2;
 11/12=2,14=11,16=1,17=2,28=-2,31=1,42=3,76=2/2,10,12;
 6/7=2,8=2,9=2,10=2/1;
 7/10=1,12=2,25=1,30=1,44=2/1,2,3,16;
 1/5=1,6=500,10=4,11=1,18=20/3(2);
 2/9=110,15=1/2;
 99//99;
 2/9=110,15=1/2;
 3/5=16,6=1,11=2,25=1,30=1,71=1,74=-60,116=2/1,2,3;
 4/5=5,16=3,69=1/1;
 5/5=2,7=500,38=5/2;
 8/6=4,10=1/1;
 9/15=2,16=-3/6;
 10/5=1,31=1/2;
 7/12=2,30=1/1,2,3,16;
 1/5=1,6=500,11=1,18=20/3(-8);
 2/9=110,15=1/2;
 6/7=2,8=2,9=2,10=2/1;
 99/9=10/99;
 -------------------
 Title Card Required
 -------------------
 Symbolic Z-matrix:
 Charge =  0 Multiplicity = 2
 C                    -1.16514   0.26352   0.10536 
 H                    -1.02562   1.31071  -0.16945 
 H                    -2.04015  -0.14006  -0.39851 
 H                    -1.27082   0.17254   1.18435 
 O                    -0.0749   -0.52142  -0.36087 
 O                     1.07313  -0.12173   0.33638 
 H                     1.49733   0.70123  -0.26544 
 H                     1.84426   1.51967  -0.78717 
 
 Add virtual bond connecting atoms H8         and H7         Dist= 1.95D+00.
 The following ModRedundant input section has been read:
 D    *          1       5    *    R                                           
 D       3       1       5       8 S  36 10.000                                
 

 GradGradGradGradGradGradGradGradGradGradGradGradGradGradGradGradGradGrad
 Berny optimization.
 Initialization pass.
                           ----------------------------
                           !    Initial Parameters    !
                           ! (Angstroms and Degrees)  !
 --------------------------                            --------------------------
 ! Name  Definition              Value          Derivative Info.                !
 --------------------------------------------------------------------------------
 ! R1    R(1,2)                  1.0916         calculate D2E/DX2 analytically  !
 ! R2    R(1,3)                  1.0874         calculate D2E/DX2 analytically  !
 ! R3    R(1,4)                  1.088          calculate D2E/DX2 analytically  !
 ! R4    R(1,5)                  1.422          calculate D2E/DX2 analytically  !
 ! R5    R(5,6)                  1.4014         calculate D2E/DX2 analytically  !
 ! R6    R(6,7)                  1.1043         calculate D2E/DX2 analytically  !
 ! R7    R(7,8)                  1.0307         calculate D2E/DX2 analytically  !
 ! A1    A(2,1,3)              110.0132         calculate D2E/DX2 analytically  !
 ! A2    A(2,1,4)              110.0174         calculate D2E/DX2 analytically  !
 ! A3    A(2,1,5)              110.4267         calculate D2E/DX2 analytically  !
 ! A4    A(3,1,4)              110.5086         calculate D2E/DX2 analytically  !
 ! A5    A(3,1,5)              105.0797         calculate D2E/DX2 analytically  !
 ! A6    A(4,1,5)              110.7            calculate D2E/DX2 analytically  !
 ! A7    A(1,5,6)              107.9097         calculate D2E/DX2 analytically  !
 ! A8    A(5,6,7)              104.8386         calculate D2E/DX2 analytically  !
 ! A9    L(6,7,8,2,-1)         176.5519         calculate D2E/DX2 analytically  !
 ! A10   L(6,7,8,2,-2)         177.0641         calculate D2E/DX2 analytically  !
 ! D1    D(3,1,5,8)            137.2043         Scan                            !
 ! D2    D(1,5,6,7)            -88.9461         calculate D2E/DX2 analytically  !
 --------------------------------------------------------------------------------
 Trust Radius=3.00D-01 FncErr=1.00D-07 GrdErr=1.00D-07 EigMax=2.50D+02 EigMin=1.00D-04
 Number of optimizations in scan=  37
 Number of steps in this run=    100 maximum allowed number of steps=    100.
 Search for a saddle point of order  1.
 GradGradGradGradGradGradGradGradGradGradGradGradGradGradGradGradGradGrad

                          Input orientation:                          
 ---------------------------------------------------------------------
 Center     Atomic      Atomic             Coordinates (Angstroms)
 Number     Number       Type             X           Y           Z
 ---------------------------------------------------------------------
      1          6           0       -1.165137    0.263517    0.105357
      2          1           0       -1.025624    1.310705   -0.169446
      3          1           0       -2.040152   -0.140056   -0.398509
      4          1           0       -1.270821    0.172535    1.184350
      5          8           0       -0.074896   -0.521419   -0.360869
      6          8           0        1.073125   -0.121729    0.336378
      7          1           0        1.497331    0.701231   -0.265443
      8          1           0        1.844260    1.519670   -0.787171
 ---------------------------------------------------------------------
                    Distance matrix (angstroms):
                    1          2          3          4          5
     1  C    0.000000
     2  H    1.091597   0.000000
     3  H    1.087384   1.785061   0.000000
     4  H    1.087967   1.785586   1.787464   0.000000
     5  O    1.422011   2.072970   2.002270   2.073526   0.000000
     6  O    2.282893   2.590844   3.198889   2.509926   1.401377
     7  H    2.723568   2.597302   3.638579   3.169240   1.993960
     8  H    3.380976   2.943040   4.241981   3.924971   2.833891
                    6          7          8
     6  O    0.000000
     7  H    1.104266   0.000000
     8  H    2.133355   1.030729   0.000000
 Symmetry turned off by external request.
 Stoichiometry    CH5O2(2)
 Framework group  C1[X(CH5O2)]
 Deg. of freedom    18
 Full point group                 C1      NOp   1
 Rotational constants (GHZ):          31.9789613           9.4889936           8.7412521
 Standard basis: CC-pVTZ (5D, 7F)
   160 basis functions,   241 primitive gaussians,   180 cartesian basis functions
    14 alpha electrons       13 beta electrons
       nuclear repulsion energy        86.6428574915 Hartrees.
 NAtoms=    8 NActive=    8 NUniq=    8 SFac= 1.00D+00 NAtFMM=   60 NAOKFM=F Big=F
 Integral buffers will be    131072 words long.
 Raffenetti 2 integral format.
 Two-electron integral symmetry is turned off.
 Nuclear repulsion after empirical dispersion term =       86.6404999411 Hartrees.
 One-electron integrals computed using PRISM.
 NBasis=   160 RedAO= T EigKep=  1.84D-03  NBF=   160
 NBsUse=   160 1.00D-06 EigRej= -1.00D+00 NBFU=   160
 ExpMin= 1.03D-01 ExpMax= 1.53D+04 ExpMxC= 5.22D+02 IAcc=3 IRadAn=         5 AccDes= 0.00D+00
 Harris functional with IExCor=  419 and IRadAn=       5 diagonalized for initial guess.
 HarFok:  IExCor=  419 AccDes= 0.00D+00 IRadAn=         5 IDoV= 1 UseB2=F ITyADJ=14
 ICtDFT=  3500011 ScaDFX=  1.000000  1.000000  1.000000  1.000000
 FoFCou: FMM=F IPFlag=           0 FMFlag=      100000 FMFlg1=           0
         NFxFlg=           0 DoJE=T BraDBF=F KetDBF=T FulRan=T
         wScrn=  0.000000 ICntrl=       500 IOpCl=  0 I1Cent=   200000004 NGrid=           0
         NMat0=    1 NMatS0=      1 NMatT0=    0 NMatD0=    1 NMtDS0=    0 NMtDT0=    0
 Symmetry not used in FoFCou.
 Initial guess <Sx>= 0.0000 <Sy>= 0.0000 <Sz>= 0.5000 <S**2>= 0.7500 S= 0.5000
 Keep R1 and R2 ints in memory in canonical form, NReq=206285696.
 Requested convergence on RMS density matrix=1.00D-08 within 500 cycles.
 Requested convergence on MAX density matrix=1.00D-06.
 Requested convergence on             energy=1.00D-06.
 No special actions if energy rises.
 Integral accuracy reduced to 1.0D-05 until final iterations.
 Initial convergence to 1.0D-05 achieved.  Increase integral accuracy.
 SCF Done:  E(UB2PLYPD3) =  -191.062472743     A.U. after   18 cycles
            NFock= 18  Conv=0.72D-08     -V/T= 2.0042
 <Sx>= 0.0000 <Sy>= 0.0000 <Sz>= 0.5000 <S**2>= 0.7686 S= 0.5092
 <L.S>=  0.00000000000    
 Annihilation of the first spin contaminant:
 S**2 before annihilation     0.7686,   after     0.7501
 DoSCS=T DFT=T ScalE2(SS,OS)=  0.270000  0.270000
 ExpMin= 1.03D-01 ExpMax= 1.53D+04 ExpMxC= 5.22D+02 IAcc=3 IRadAn=         5 AccDes= 0.00D+00
 HarFok:  IExCor=  205 AccDes= 0.00D+00 IRadAn=         5 IDoV=-2 UseB2=F ITyADJ=14
 ICtDFT= 12500011 ScaDFX=  1.000000  1.000000  1.000000  1.000000
 Range of M.O.s used for correlation:     4   160
 NBasis=   160 NAE=    14 NBE=    13 NFC=     3 NFV=     0
 NROrb=    157 NOA=    11 NOB=    10 NVA=   146 NVB=   147

 **** Warning!!: The largest alpha MO coefficient is  0.11983289D+02


 **** Warning!!: The largest beta MO coefficient is  0.11983195D+02

 DoSCS=T DFT=T ScalE2(SS,OS)=  0.270000  0.270000
 Disk-based method using ON**2 memory for 11 occupieds at a time.
 Permanent disk used for amplitudes=     5706337 words.
 Estimated scratch disk usage=   117381096 words.
 Actual    scratch disk usage=   113459176 words.
 JobTyp=2 Pass  1:  I=   4 to  14 NPSUse= 40 ParTrn=T ParDer=T DoDerP=T.
 (rs|ai) integrals will be sorted in core.
 Actual    scratch disk usage=   113459176 words.
 JobTyp=3 Pass  1:  I=   4 to  13 NPSUse= 40 ParTrn=T ParDer=T DoDerP=T.
 (rs|ai) integrals will be sorted in core.
 Spin components of T(2) and E(2):
     alpha-alpha T2 =       0.3310493783D-01 E2=     -0.2707211026D-01
     alpha-beta  T2 =       0.2124879428D+00 E2=     -0.1685324615D+00
     beta-beta   T2 =       0.3854814975D-01 E2=     -0.2745239147D-01
 (S**2,0)=  0.76855D+00           (S**2,1)=  0.74435D+00
 Scaling Projection term by:   0.270000
 E(PUHF)=      -0.19106813126D+03        E(PMP2)=      -0.19128606318D+03
 E2(B2PLYPD3) =    -0.2230569632D+00 E(B2PLYPD3) =    -0.19128552970650D+03
 G2DrvN: will do     9 centers at a time, making    1 passes.
 Calling FoFCou, ICntrl=  3107 FMM=F I1Cent=   0 AccDes= 0.00D+00.
 End of G2Drv F.D. properties file   721 does not exist.
 End of G2Drv F.D. properties file   722 does not exist.
 End of G2Drv F.D. properties file   788 does not exist.
          IDoAtm=11111111
          Differentiating once with respect to electric field.
                with respect to dipole field.
          Differentiating once with respect to nuclear coordinates.
 Keep R1 and R2 ints in memory in canonical form, NReq=206153262.
          There are    27 degrees of freedom in the 1st order CPHF.  IDoFFX=6 NUNeed=    27.
     24 vectors produced by pass  0 Test12= 1.46D-14 3.70D-09 XBig12= 3.13D+01 3.10D+00.
 AX will form    24 AO Fock derivatives at one time.
     24 vectors produced by pass  1 Test12= 1.46D-14 3.70D-09 XBig12= 2.73D+00 4.02D-01.
     24 vectors produced by pass  2 Test12= 1.46D-14 3.70D-09 XBig12= 1.25D-01 5.98D-02.
     24 vectors produced by pass  3 Test12= 1.46D-14 3.70D-09 XBig12= 1.77D-03 6.64D-03.
     24 vectors produced by pass  4 Test12= 1.46D-14 3.70D-09 XBig12= 1.80D-05 6.31D-04.
     24 vectors produced by pass  5 Test12= 1.46D-14 3.70D-09 XBig12= 2.26D-07 8.87D-05.
     24 vectors produced by pass  6 Test12= 1.46D-14 3.70D-09 XBig12= 1.87D-09 5.19D-06.
      6 vectors produced by pass  7 Test12= 1.46D-14 3.70D-09 XBig12= 1.25D-11 3.71D-07.
      3 vectors produced by pass  8 Test12= 1.46D-14 3.70D-09 XBig12= 6.83D-14 3.10D-08.
 InvSVY:  IOpt=1 It=  1 EMax= 6.22D-15
 Solved reduced A of dimension   177 with    27 vectors.
 End of Minotr F.D. properties file   721 does not exist.
 End of Minotr F.D. properties file   722 does not exist.
 End of Minotr F.D. properties file   788 does not exist.
 MDV= 10737418240.
 DoSCS=T DFT=T ScalE2(SS,OS)=  0.270000  0.270000
 Form MO integral derivatives with frozen-active canonical formalism.
 Discarding MO integrals.
 Reordered first order wavefunction length =     23137793
 In DefCFB: NBatch=  1 ICI= 14 ICA=147 LFMax= 74
            Large arrays: LIAPS=   455616000 LIARS=   181515600 words.
 In DefCFB: NBatch=  1 ICI= 14 ICA=147 LFMax= 74
            Large arrays: LIAPS=   455616000 LIARS=   181515600 words.
 Semi-Direct transformation.
 ModeAB=           2 MOrb=            14 LenV=   10736500787
 LASXX=     26967101 LTotXX=    26967101 LenRXX=    26967101
 LTotAB=    27679120 MaxLAS=    36489600 LenRXY=    36489600
 NonZer=    53934202 LenScr=    81682432 LnRSAI=           0
 LnScr1=           0 LExtra=           0 Total=    145139133
 MaxDsk=          -1 SrtSym=           F ITran=            4
 JobTyp=1 Pass  1:  I=   1 to  14.
 (rs|ai) integrals will be sorted in core.
 ModeAB=           2 MOrb=            13 LenV=   10736500787
 LASXX=     25148019 LTotXX=    25148019 LenRXX=    33883200
 LTotAB=    21483462 MaxLAS=    33883200 LenRXY=    21483462
 NonZer=    50296038 LenScr=    76217344 LnRSAI=           0
 LnScr1=           0 LExtra=           0 Total=    131584006
 MaxDsk=          -1 SrtSym=           F ITran=            4
 JobTyp=2 Pass  1:  I=   1 to  13.
 (rs|ai) integrals will be sorted in core.
 DoSCS=T DFT=T ScalE2(SS,OS)=  0.270000  0.270000
 Spin components of T(2) and E(2):
     alpha-alpha T2 =       0.3310493783D-01 E2=     -0.2707211026D-01
     alpha-beta  T2 =       0.2124879428D+00 E2=     -0.1685324615D+00
     beta-beta   T2 =       0.3854814975D-01 E2=     -0.2745239147D-01
 E2(B2PLYPD3) =    -0.2230569632D+00 E(B2PLYPD3) =    -0.19128552970650D+03
 (S**2,0)=  0.76855D+00           (S**2,1)=  0.74435D+00
 Scaling Projection term by:   0.270000
 E(PUHF)=      -0.19106813126D+03        E(PMP2)=      -0.19128606318D+03
          IDoAtm=11111111
          Differentiating once with respect to electric field.
                with respect to dipole field.
          Differentiating once with respect to nuclear coordinates.
 Keep R1 and R2 ints in memory in canonical form, NReq=206291324.
          There are     1 degrees of freedom in the 1st order CPHF.  IDoFFX=0 NUNeed=     1.
 LinEq1:  Iter=  0 NonCon=     1 RMS=1.47D-03 Max=6.31D-02 NDo=     1
 AX will form     1 AO Fock derivatives at one time.
 LinEq1:  Iter=  1 NonCon=     1 RMS=3.88D-04 Max=5.76D-03 NDo=     1
 LinEq1:  Iter=  2 NonCon=     1 RMS=2.56D-04 Max=4.75D-03 NDo=     1
 LinEq1:  Iter=  3 NonCon=     1 RMS=1.31D-04 Max=2.06D-03 NDo=     1
 LinEq1:  Iter=  4 NonCon=     1 RMS=6.99D-05 Max=8.72D-04 NDo=     1
 LinEq1:  Iter=  5 NonCon=     1 RMS=3.72D-05 Max=5.22D-04 NDo=     1
 LinEq1:  Iter=  6 NonCon=     1 RMS=2.51D-05 Max=4.83D-04 NDo=     1
 LinEq1:  Iter=  7 NonCon=     1 RMS=8.24D-06 Max=1.13D-04 NDo=     1
 LinEq1:  Iter=  8 NonCon=     1 RMS=2.84D-06 Max=4.08D-05 NDo=     1
 LinEq1:  Iter=  9 NonCon=     1 RMS=8.54D-07 Max=1.34D-05 NDo=     1
 LinEq1:  Iter= 10 NonCon=     1 RMS=2.31D-07 Max=2.95D-06 NDo=     1
 LinEq1:  Iter= 11 NonCon=     1 RMS=6.69D-08 Max=1.25D-06 NDo=     1
 LinEq1:  Iter= 12 NonCon=     1 RMS=1.66D-08 Max=4.85D-07 NDo=     1
 LinEq1:  Iter= 13 NonCon=     1 RMS=4.91D-09 Max=1.49D-07 NDo=     1
 LinEq1:  Iter= 14 NonCon=     1 RMS=1.45D-09 Max=2.75D-08 NDo=     1
 LinEq1:  Iter= 15 NonCon=     1 RMS=3.80D-10 Max=4.13D-09 NDo=     1
 LinEq1:  Iter= 16 NonCon=     0 RMS=9.77D-11 Max=9.99D-10 NDo=     1
 Linear equations converged to 1.000D-10 1.000D-09 after    16 iterations.
 End of Minotr F.D. properties file   721 does not exist.
 End of Minotr F.D. properties file   722 does not exist.
 End of Minotr F.D. properties file   788 does not exist.
 Symmetrizing basis deriv contribution to polar:
 IMax=3 JMax=2 DiffMx= 0.00D+00
 G2DrvN: will do     9 centers at a time, making    1 passes.
 Calling FoFCou, ICntrl=  3107 FMM=F I1Cent=   0 AccDes= 0.00D+00.
 End of G2Drv F.D. properties file   721 does not exist.
 End of G2Drv F.D. properties file   722 does not exist.
 End of G2Drv F.D. properties file   788 does not exist.
 DoSCS=T DFT=T ScalE2(SS,OS)=  0.270000  0.270000
 R2 and R3 integrals will be kept in memory, NReq=   268345170.
 DD1Dir will call FoFMem   1 times, MxPair=       534
 NAB=   182 NAA=    91 NBB=    78.
 Discarding MO integrals.

 **********************************************************************

            Population analysis using the SCF Density.

 **********************************************************************

 Alpha  occ. eigenvalues --  -19.81095 -19.80391 -10.67098  -1.29899  -1.04231
 Alpha  occ. eigenvalues --   -0.79191  -0.64778  -0.57413  -0.56097  -0.51837
 Alpha  occ. eigenvalues --   -0.45691  -0.41685  -0.38672  -0.34699
 Alpha virt. eigenvalues --    0.08805   0.11686   0.14525   0.14990   0.17500
 Alpha virt. eigenvalues --    0.20778   0.28846   0.30436   0.32407   0.42407
 Alpha virt. eigenvalues --    0.48608   0.49007   0.50336   0.51202   0.53103
 Alpha virt. eigenvalues --    0.53970   0.56016   0.57837   0.66644   0.67608
 Alpha virt. eigenvalues --    0.70118   0.77091   0.80386   0.83471   0.89895
 Alpha virt. eigenvalues --    0.92614   0.95273   1.00370   1.02641   1.05567
 Alpha virt. eigenvalues --    1.07302   1.13118   1.14597   1.16746   1.19028
 Alpha virt. eigenvalues --    1.30301   1.35342   1.37513   1.38328   1.45054
 Alpha virt. eigenvalues --    1.51039   1.60876   1.65131   1.76961   1.86423
 Alpha virt. eigenvalues --    1.96102   2.00328   2.05112   2.06916   2.10326
 Alpha virt. eigenvalues --    2.17993   2.22345   2.31901   2.35984   2.41904
 Alpha virt. eigenvalues --    2.47659   2.49369   2.56866   2.70730   2.82002
 Alpha virt. eigenvalues --    2.88679   2.91083   2.95377   3.01129   3.01759
 Alpha virt. eigenvalues --    3.06514   3.10102   3.11639   3.13824   3.15145
 Alpha virt. eigenvalues --    3.18412   3.25086   3.29003   3.39715   3.40993
 Alpha virt. eigenvalues --    3.47480   3.50708   3.51803   3.55601   3.57679
 Alpha virt. eigenvalues --    3.58300   3.61496   3.62182   3.64793   3.73302
 Alpha virt. eigenvalues --    3.82133   3.83028   3.85226   3.86466   3.92068
 Alpha virt. eigenvalues --    3.94984   3.95473   3.99937   4.08572   4.09782
 Alpha virt. eigenvalues --    4.16554   4.17641   4.23211   4.33940   4.34190
 Alpha virt. eigenvalues --    4.43445   4.51415   4.66409   4.69295   4.71476
 Alpha virt. eigenvalues --    4.81120   4.81958   4.92305   4.95952   4.98537
 Alpha virt. eigenvalues --    5.01356   5.05979   5.22962   5.29227   5.29938
 Alpha virt. eigenvalues --    5.33922   5.36169   5.37723   5.38311   5.45953
 Alpha virt. eigenvalues --    5.66577   5.77056   5.88519   5.91467   5.94633
 Alpha virt. eigenvalues --    6.06958   6.09503   6.24670   6.36234   6.48090
 Alpha virt. eigenvalues --    6.50928   6.61317   6.70602   6.75182   6.80802
 Alpha virt. eigenvalues --    6.93390   7.02585   7.05646   7.10197   7.40606
 Alpha virt. eigenvalues --    7.41979   7.59537   7.74128   9.97402  10.95968
 Alpha virt. eigenvalues --   13.35648
  Beta  occ. eigenvalues --  -19.80204 -19.79635 -10.67105  -1.27998  -1.01558
  Beta  occ. eigenvalues --   -0.78742  -0.60638  -0.55966  -0.55767  -0.48741
  Beta  occ. eigenvalues --   -0.44824  -0.37689  -0.35736
  Beta virt. eigenvalues --   -0.08437   0.08929   0.12447   0.14588   0.15074
  Beta virt. eigenvalues --    0.18643   0.22825   0.29717   0.30783   0.33772
  Beta virt. eigenvalues --    0.42882   0.49069   0.50434   0.51346   0.52317
  Beta virt. eigenvalues --    0.55094   0.55382   0.57334   0.59227   0.67056
  Beta virt. eigenvalues --    0.68363   0.72203   0.77536   0.82050   0.84483
  Beta virt. eigenvalues --    0.90199   0.93009   0.96331   1.01291   1.02968
  Beta virt. eigenvalues --    1.05903   1.07792   1.14129   1.15094   1.18429
  Beta virt. eigenvalues --    1.19273   1.30546   1.35467   1.37536   1.38388
  Beta virt. eigenvalues --    1.45930   1.51388   1.60958   1.66009   1.77183
  Beta virt. eigenvalues --    1.87912   1.96624   2.01226   2.07193   2.08587
  Beta virt. eigenvalues --    2.12297   2.18151   2.23969   2.32667   2.37203
  Beta virt. eigenvalues --    2.42632   2.48114   2.55031   2.57391   2.70813
  Beta virt. eigenvalues --    2.82073   2.88759   2.91105   2.95777   3.01544
  Beta virt. eigenvalues --    3.03342   3.08459   3.10616   3.12147   3.14959
  Beta virt. eigenvalues --    3.15450   3.18757   3.28685   3.32551   3.39778
  Beta virt. eigenvalues --    3.41420   3.48425   3.51525   3.52032   3.56398
  Beta virt. eigenvalues --    3.59078   3.60302   3.62627   3.63911   3.66375
  Beta virt. eigenvalues --    3.74820   3.83828   3.86224   3.88312   3.89236
  Beta virt. eigenvalues --    3.93470   3.94905   3.96213   4.01479   4.09932
  Beta virt. eigenvalues --    4.10870   4.16724   4.17690   4.23476   4.34133
  Beta virt. eigenvalues --    4.34299   4.43725   4.54128   4.68569   4.70482
  Beta virt. eigenvalues --    4.73298   4.81627   4.82420   4.92427   4.97130
  Beta virt. eigenvalues --    4.99093   5.01566   5.06427   5.23849   5.29443
  Beta virt. eigenvalues --    5.30396   5.34140   5.36884   5.38263   5.38829
  Beta virt. eigenvalues --    5.46290   5.67275   5.77861   5.90250   5.91875
  Beta virt. eigenvalues --    5.94866   6.07408   6.11325   6.25048   6.36512
  Beta virt. eigenvalues --    6.50919   6.52813   6.62595   6.72138   6.76983
  Beta virt. eigenvalues --    6.82878   6.94652   7.03152   7.07035   7.12039
  Beta virt. eigenvalues --    7.40955   7.43955   7.61340   7.75148   9.97955
  Beta virt. eigenvalues --   10.97135  13.35650
          Condensed to atoms (all electrons):
               1          2          3          4          5          6
     1  C    4.584043   0.396615   0.393824   0.409045   0.304247  -0.043103
     2  H    0.396615   0.663559  -0.030011  -0.059682  -0.045779  -0.002402
     3  H    0.393824  -0.030011   0.587923  -0.029722  -0.025664   0.006837
     4  H    0.409045  -0.059682  -0.029722   0.634062  -0.042236   0.002949
     5  O    0.304247  -0.045779  -0.025664  -0.042236   7.927406   0.076637
     6  O   -0.043103  -0.002402   0.006837   0.002949   0.076637   7.993912
     7  H   -0.000886   0.005725  -0.000724  -0.000550  -0.024768   0.221764
     8  H   -0.003314   0.002150   0.000196  -0.000139   0.001860  -0.062174
               7          8
     1  C   -0.000886  -0.003314
     2  H    0.005725   0.002150
     3  H   -0.000724   0.000196
     4  H   -0.000550  -0.000139
     5  O   -0.024768   0.001860
     6  O    0.221764  -0.062174
     7  H    0.436190   0.163913
     8  H    0.163913   0.943684
          Atomic-Atomic Spin Densities.
               1          2          3          4          5          6
     1  C   -0.005353   0.006912   0.000546  -0.004199  -0.000879  -0.002530
     2  H    0.006912  -0.001706  -0.000708  -0.000901  -0.000178   0.003507
     3  H    0.000546  -0.000708  -0.001471   0.001055  -0.000018  -0.000181
     4  H   -0.004199  -0.000901   0.001055   0.006259  -0.001117  -0.000195
     5  O   -0.000879  -0.000178  -0.000018  -0.001117   0.064335  -0.040648
     6  O   -0.002530   0.003507  -0.000181  -0.000195  -0.040648   0.483282
     7  H    0.003034  -0.003139   0.000005   0.001103   0.005601   0.009243
     8  H    0.000399  -0.005381   0.000114   0.001346   0.011510  -0.071629
               7          8
     1  C    0.003034   0.000399
     2  H   -0.003139  -0.005381
     3  H    0.000005   0.000114
     4  H    0.001103   0.001346
     5  O    0.005601   0.011510
     6  O    0.009243  -0.071629
     7  H   -0.152041   0.008991
     8  H    0.008991   0.763371
 Mulliken charges and spin densities:
               1          2
     1  C   -0.040471  -0.002070
     2  H    0.069824  -0.001594
     3  H    0.097339  -0.000657
     4  H    0.086272   0.003350
     5  O   -0.171703   0.038606
     6  O   -0.194420   0.380849
     7  H    0.199334  -0.127204
     8  H   -0.046176   0.708720
 Sum of Mulliken charges =  -0.00000   1.00000
 Mulliken charges and spin densities with hydrogens summed into heavy atoms:
               1          2
     1  C    0.212964  -0.000971
     5  O   -0.171703   0.038606
     6  O   -0.041261   0.962365
 APT charges:
               1
     1  C    0.433891
     2  H   -0.042573
     3  H    0.003919
     4  H   -0.025552
     5  O   -0.443175
     6  O    0.214067
     7  H   -0.264130
     8  H    0.123553
 Sum of APT charges =  -0.00000
 APT charges with hydrogens summed into heavy atoms:
               1
     1  C    0.369684
     5  O   -0.443175
     6  O    0.073491
 Electronic spatial extent (au):  <R**2>=            190.7375
 Charge=             -0.0000 electrons
 Dipole moment (field-independent basis, Debye):
    X=             -1.3352    Y=              1.5728    Z=             -0.0698  Tot=              2.0643
 Quadrupole moment (field-independent basis, Debye-Ang):
   XX=            -17.3983   YY=            -19.8922   ZZ=            -20.1753
   XY=              1.0534   XZ=             -0.8815   YZ=             -0.6008
 Traceless Quadrupole moment (field-independent basis, Debye-Ang):
   XX=              1.7570   YY=             -0.7369   ZZ=             -1.0201
   XY=              1.0534   XZ=             -0.8815   YZ=             -0.6008
 Octapole moment (field-independent basis, Debye-Ang**2):
  XXX=             -0.5917  YYY=             -2.7265  ZZZ=              1.6585  XYY=              0.8255
  XXY=              0.3007  XXZ=             -1.2603  XZZ=             -0.3648  YZZ=             -1.3281
  YYZ=              0.0321  XYZ=             -0.4921
 Hexadecapole moment (field-independent basis, Debye-Ang**3):
 XXXX=           -152.5481 YYYY=            -55.5247 ZZZZ=            -37.3971 XXXY=              0.8560
 XXXZ=              3.9912 YYYX=             -3.5198 YYYZ=              0.9752 ZZZX=              1.8965
 ZZZY=              1.7356 XXYY=            -35.1388 XXZZ=            -32.1638 YYZZ=            -15.8194
 XXYZ=              1.1181 YYXZ=              0.7256 ZZXY=             -0.7977
 N-N= 8.664049994113D+01 E-N=-6.232222011801D+02  KE= 1.902705719516D+02
  Exact polarizability:  44.602  13.275  35.667  -5.624  -7.311  26.116
 Approx polarizability:  36.763   8.267  34.879  -0.659  -4.947  27.839
                          Isotropic Fermi Contact Couplings
        Atom                 a.u.       MegaHertz       Gauss      10(-4) cm-1
     1  C(13)             -0.00409      -4.59709      -1.64036      -1.53342
     2  H(1)               0.00354      15.83653       5.65087       5.28250
     3  H(1)              -0.00003      -0.11288      -0.04028      -0.03765
     4  H(1)               0.00096       4.29770       1.53353       1.43356
     5  O(17)              0.01691     -10.25242      -3.65832      -3.41984
     6  O(17)             -0.01252       7.59111       2.70870       2.53212
     7  H(1)              -0.03452    -154.30247     -55.05896     -51.46976
     8  H(1)               0.21840     976.20316     348.33356     325.62632
 --------------------------------------------------------
       Center         ----  Spin Dipole Couplings  ----
                      3XX-RR        3YY-RR        3ZZ-RR
 --------------------------------------------------------
     1   Atom        0.006811      0.001986     -0.008797
     2   Atom        0.007320     -0.001145     -0.006175
     3   Atom        0.006534     -0.003142     -0.003391
     4   Atom        0.005830     -0.004045     -0.001785
     5   Atom       -0.146152      0.207522     -0.061370
     6   Atom       -0.746820      0.539224      0.207596
     7   Atom       -0.068858      0.096210     -0.027352
     8   Atom        0.000391      0.000480     -0.000870
 --------------------------------------------------------
                        XY            XZ            YZ
 --------------------------------------------------------
     1   Atom       -0.000743     -0.001835     -0.000865
     2   Atom       -0.003220     -0.001566     -0.001540
     3   Atom        0.000431      0.000639     -0.000360
     4   Atom       -0.000718     -0.005148      0.000649
     5   Atom        0.166240     -0.151588     -0.289028
     6   Atom        0.359363     -0.308783     -1.196574
     7   Atom        0.115372     -0.075746     -0.150956
     8   Atom        0.000559      0.001321      0.000522
 --------------------------------------------------------


 ---------------------------------------------------------------------------------
              Anisotropic Spin Dipole Couplings in Principal Axis System
 ---------------------------------------------------------------------------------

       Atom             a.u.   MegaHertz   Gauss  10(-4) cm-1        Axes

              Baa    -0.0091    -1.220    -0.435    -0.407  0.1181  0.0852  0.9893
     1 C(13)  Bbb     0.0020     0.267     0.095     0.089  0.1146  0.9885 -0.0988
              Bcc     0.0071     0.953     0.340     0.318  0.9864 -0.1251 -0.1070
 
              Baa    -0.0070    -3.755    -1.340    -1.253  0.1766  0.3381  0.9244
     2 H(1)   Bbb    -0.0014    -0.766    -0.273    -0.256  0.2601  0.8897 -0.3752
              Bcc     0.0085     4.521     1.613     1.508  0.9493 -0.3067 -0.0692
 
              Baa    -0.0037    -1.977    -0.706    -0.660 -0.0750  0.5774  0.8130
     3 H(1)   Bbb    -0.0029    -1.540    -0.549    -0.514  0.0020  0.8154 -0.5789
              Bcc     0.0066     3.517     1.255     1.173  0.9972  0.0418  0.0623
 
              Baa    -0.0045    -2.420    -0.863    -0.807  0.3518 -0.5170  0.7804
     4 H(1)   Bbb    -0.0040    -2.113    -0.754    -0.705  0.2907  0.8528  0.4339
              Bcc     0.0085     4.533     1.617     1.512  0.8898 -0.0743 -0.4503
 
              Baa    -0.2734    19.781     7.058     6.598  0.5737  0.2671  0.7743
     5 O(17)  Bbb    -0.1983    14.347     5.120     4.786  0.7458 -0.5612 -0.3590
              Bcc     0.4716   -34.128   -12.178   -11.384  0.3387  0.7834 -0.5211
 
              Baa    -0.8411    60.858    21.716    20.300  0.8836 -0.4162 -0.2147
     6 O(17)  Bbb    -0.8331    60.282    21.510    20.108  0.4271  0.5281  0.7339
              Bcc     1.6741  -121.140   -43.226   -40.408  0.1921  0.7402 -0.6444
 
              Baa    -0.1295   -69.097   -24.656   -23.048 -0.4938  0.6435  0.5848
     7 H(1)   Bbb    -0.1266   -67.568   -24.110   -22.538  0.7768  0.0241  0.6293
              Bcc     0.2561   136.666    48.766    45.587  0.3909  0.7650 -0.5118
 
              Baa    -0.0017    -0.914    -0.326    -0.305 -0.5166 -0.0714  0.8533
     8 H(1)   Bbb     0.0000     0.012     0.004     0.004 -0.4847  0.8458 -0.2227
              Bcc     0.0017     0.902     0.322     0.301  0.7058  0.5286  0.4715
 

 ---------------------------------------------------------------------------------

 Calling FoFJK, ICntrl=  10100127 FMM=F ISym2X=0 I1Cent= 0 IOpClX= 1 NMat=1 NMatS=1 NMatT=0.
 -------------------------------------------------------------------
 Center     Atomic                   Forces (Hartrees/Bohr)
 Number     Number              X              Y              Z
 -------------------------------------------------------------------
      1        6           0.000003460   -0.000009173   -0.000000568
      2        1           0.000003251   -0.000000459   -0.000000861
      3        1          -0.000000603   -0.000000168    0.000000032
      4        1           0.000000206    0.000000390    0.000000381
      5        8          -0.000069947   -0.000013785   -0.000037608
      6        8           0.000069297    0.000034652    0.000030931
      7        1          -0.000013016   -0.000016727    0.000011742
      8        1           0.000007351    0.000005271   -0.000004050
 -------------------------------------------------------------------
 Cartesian Forces:  Max     0.000069947 RMS     0.000024367
 FormGI is forming the generalized inverse of G from B-inverse, IUseBI=4.

 GradGradGradGradGradGradGradGradGradGradGradGradGradGradGradGradGradGrad
 Berny optimization.
 Internal  Forces:  Max     0.000077834 RMS     0.000018718
 Search for a saddle point.
 Step number   1 out of a maximum of  100 on scan point     1 out of    37
 All quantities printed in internal units (Hartrees-Bohrs-Radians)
 Swapping is turned off.
 Second derivative matrix not updated -- analytic derivatives used.
 The second derivative matrix:
                          R1        R2        R3        R4        R5
           R1           0.33379
           R2           0.00229   0.34780
           R3           0.00325   0.00207   0.34296
           R4           0.01615   0.00853   0.01238   0.31694
           R5           0.00102  -0.00191  -0.00141   0.01851   0.29235
           R6           0.00101  -0.00016   0.00182  -0.00433   0.05563
           R7          -0.00154  -0.00012  -0.00041   0.00377  -0.02114
           A1           0.00992   0.00829  -0.01067  -0.02749   0.00511
           A2           0.01070  -0.01011   0.00992  -0.02495  -0.00161
           A3           0.00369  -0.00689  -0.00636   0.03170  -0.01485
           A4          -0.01195   0.00786   0.00959  -0.02623   0.00400
           A5          -0.00632   0.00881  -0.00535   0.01506   0.02016
           A6          -0.00678  -0.00697   0.00201   0.03354  -0.01203
           A7          -0.00347   0.00992  -0.00703   0.03195   0.06467
           A8           0.00601   0.00010  -0.00194  -0.00646   0.05768
           A9           0.00093   0.00006  -0.00028  -0.00168  -0.00070
           A10         -0.00139  -0.00005   0.00099   0.00034  -0.00024
           D1          -0.00328  -0.00021   0.00310  -0.00000  -0.00306
           D2          -0.00142  -0.00008  -0.00094   0.00229   0.00282
                          R6        R7        A1        A2        A3
           R6           0.10725
           R7           0.11394   0.04491
           A1          -0.00261  -0.00022   0.11660
           A2          -0.00103   0.00066  -0.01844   0.11143
           A3           0.00603  -0.00184  -0.02413  -0.02470   0.15726
           A4          -0.00134   0.00115  -0.01818  -0.01961  -0.03270
           A5          -0.00258  -0.00014  -0.01991  -0.03152  -0.03719
           A6           0.00150   0.00034  -0.03443  -0.02508  -0.03788
           A7          -0.00579   0.00311  -0.00343  -0.00105  -0.01503
           A8          -0.01577   0.00582   0.00632  -0.00105   0.00180
           A9           0.00063   0.00048   0.00179  -0.00026  -0.00045
           A10          0.00093   0.00125  -0.00281  -0.00014  -0.00262
           D1           0.00133   0.00193  -0.00830  -0.00081  -0.00555
           D2          -0.00478  -0.00025   0.00227   0.00068   0.00583
                          A4        A5        A6        A7        A8
           A4           0.11498
           A5          -0.02158   0.15479
           A6          -0.02220  -0.03805   0.15686
           A7          -0.00092   0.03582  -0.01423   0.32670
           A8          -0.00632   0.00302  -0.00356  -0.00115   0.20051
           A9          -0.00079   0.00044  -0.00068  -0.00190   0.00544
           A10          0.00310  -0.00018   0.00263   0.00184  -0.01076
           D1           0.00810  -0.00236   0.00880   0.00034  -0.01576
           D2          -0.00375  -0.00252  -0.00260  -0.00578   0.00233
                          A9        A10       D1        D2
           A9           0.02070
           A10         -0.00476   0.02225
           D1          -0.00272   0.00685   0.02024
           D2          -0.00292  -0.00614  -0.00471   0.01785
 ITU=  0
     Eigenvalues ---   -0.05331   0.01074   0.02219   0.02624   0.12770
     Eigenvalues ---    0.12919   0.13212   0.15922   0.17882   0.19601
     Eigenvalues ---    0.20601   0.27222   0.32380   0.33807   0.34805
     Eigenvalues ---    0.35693   0.411921000.000001000.00000
 Eigenvectors required to have negative eigenvalues:
                          R7        R6        R5        A8        D2
   1                    0.75892  -0.61402   0.17385  -0.09670  -0.04928
                          A7        A3        R4        A10       A4
   1                   -0.04105   0.03537  -0.02845  -0.01970  -0.01816
 RFO step:  Lambda0=1.597832395D-08 Lambda=-2.62127981D-08.
 Linear search not attempted -- option 19 set.
 Iteration  1 RMS(Cart)=  0.00031406 RMS(Int)=  0.00000007
 Iteration  2 RMS(Cart)=  0.00000008 RMS(Int)=  0.00000000
 Iteration  1 RMS(Cart)=  0.00000000 RMS(Int)=  0.00000000
 Variable       Old X    -DE/DX   Delta X   Delta X   Delta X     New X
                                 (Linear)    (Quad)   (Total)
    R1        2.06282   0.00000   0.00000  -0.00000  -0.00000   2.06281
    R2        2.05486   0.00000   0.00000   0.00000   0.00000   2.05486
    R3        2.05596   0.00000   0.00000  -0.00000  -0.00000   2.05596
    R4        2.68721  -0.00001   0.00000  -0.00002  -0.00002   2.68719
    R5        2.64822   0.00008   0.00000   0.00018   0.00018   2.64840
    R6        2.08676  -0.00001   0.00000   0.00032   0.00032   2.08708
    R7        1.94780   0.00001   0.00000  -0.00053  -0.00053   1.94727
    A1        1.92009   0.00000   0.00000   0.00001   0.00001   1.92010
    A2        1.92017   0.00000   0.00000   0.00001   0.00001   1.92017
    A3        1.92731  -0.00001   0.00000  -0.00002  -0.00002   1.92729
    A4        1.92874   0.00000   0.00000  -0.00000  -0.00000   1.92874
    A5        1.83399   0.00000   0.00000  -0.00000  -0.00000   1.83398
    A6        1.93208   0.00000   0.00000   0.00001   0.00001   1.93209
    A7        1.88338  -0.00000   0.00000  -0.00003  -0.00003   1.88335
    A8        1.82978   0.00001   0.00000   0.00001   0.00001   1.82979
    A9        3.08141   0.00001   0.00000   0.00040   0.00040   3.08181
   A10        3.09035  -0.00000   0.00000   0.00003   0.00003   3.09038
    D1        2.39467   0.00000   0.00000   0.00000   0.00000   2.39467
    D2       -1.55240  -0.00001   0.00000  -0.00026  -0.00026  -1.55266
         Item               Value     Threshold  Converged?
 Maximum Force            0.000078     0.000450     YES
 RMS     Force            0.000019     0.000300     YES
 Maximum Displacement     0.000863     0.001800     YES
 RMS     Displacement     0.000314     0.001200     YES
 Predicted change in Energy=-5.117235D-09
 Optimization completed.
    -- Stationary point found.
                           ----------------------------
                           !   Optimized Parameters   !
                           ! (Angstroms and Degrees)  !
 --------------------------                            --------------------------
 ! Name  Definition              Value          Derivative Info.                !
 --------------------------------------------------------------------------------
 ! R1    R(1,2)                  1.0916         -DE/DX =    0.0                 !
 ! R2    R(1,3)                  1.0874         -DE/DX =    0.0                 !
 ! R3    R(1,4)                  1.088          -DE/DX =    0.0                 !
 ! R4    R(1,5)                  1.422          -DE/DX =    0.0                 !
 ! R5    R(5,6)                  1.4014         -DE/DX =    0.0001              !
 ! R6    R(6,7)                  1.1043         -DE/DX =    0.0                 !
 ! R7    R(7,8)                  1.0307         -DE/DX =    0.0                 !
 ! A1    A(2,1,3)              110.0132         -DE/DX =    0.0                 !
 ! A2    A(2,1,4)              110.0174         -DE/DX =    0.0                 !
 ! A3    A(2,1,5)              110.4267         -DE/DX =    0.0                 !
 ! A4    A(3,1,4)              110.5086         -DE/DX =    0.0                 !
 ! A5    A(3,1,5)              105.0797         -DE/DX =    0.0                 !
 ! A6    A(4,1,5)              110.7            -DE/DX =    0.0                 !
 ! A7    A(1,5,6)              107.9097         -DE/DX =    0.0                 !
 ! A8    A(5,6,7)              104.8386         -DE/DX =    0.0                 !
 ! A9    L(6,7,8,2,-1)         176.5519         -DE/DX =    0.0                 !
 ! A10   L(6,7,8,2,-2)         177.0641         -DE/DX =    0.0                 !
 ! D1    D(3,1,5,8)            137.2043         -DE/DX =    0.0                 !
 ! D2    D(1,5,6,7)            -88.9461         -DE/DX =    0.0                 !
 --------------------------------------------------------------------------------
 Iteration  1 RMS(Cart)=  0.10487546 RMS(Int)=  0.00528547
 Iteration  2 RMS(Cart)=  0.00633864 RMS(Int)=  0.00001511
 Iteration  3 RMS(Cart)=  0.00002160 RMS(Int)=  0.00000000
 Iteration  4 RMS(Cart)=  0.00000000 RMS(Int)=  0.00000000
 Iteration  1 RMS(Cart)=  0.00000000 RMS(Int)=  0.00000000
 GradGradGradGradGradGradGradGradGradGradGradGradGradGradGradGradGradGrad

                          Input orientation:                          
 ---------------------------------------------------------------------
 Center     Atomic      Atomic             Coordinates (Angstroms)
 Number     Number       Type             X           Y           Z
 ---------------------------------------------------------------------
      1          6           0       -1.167787    0.272829    0.089135
      2          1           0       -1.100466    1.306266   -0.255905
      3          1           0       -2.065084   -0.194779   -0.309122
      4          1           0       -1.172966    0.242889    1.176677
      5          8           0       -0.089118   -0.494860   -0.429715
      6          8           0        1.061554   -0.170635    0.301690
      7          1           0        1.504855    0.687379   -0.234097
      8          1           0        1.867098    1.535367   -0.694016
 ---------------------------------------------------------------------
                    Distance matrix (angstroms):
                    1          2          3          4          5
     1  C    0.000000
     2  H    1.091594   0.000000
     3  H    1.087386   1.785065   0.000000
     4  H    1.087967   1.785587   1.787464   0.000000
     5  O    1.421999   2.072943   2.002258   2.073523   0.000000
     6  O    2.282937   2.677028   3.185834   2.435094   1.401471
     7  H    2.723848   2.677908   3.678083   3.059180   1.994168
     8  H    3.379032   3.008465   4.313190   3.796312   2.831688
                    6          7          8
     6  O    0.000000
     7  H    1.104433   0.000000
     8  H    2.133254   1.030451   0.000000
 Symmetry turned off by external request.
 Stoichiometry    CH5O2(2)
 Framework group  C1[X(CH5O2)]
 Deg. of freedom    18
 Full point group                 C1      NOp   1
 Rotational constants (GHZ):          31.9791968           9.4889021           8.7424825
 Standard basis: CC-pVTZ (5D, 7F)
   160 basis functions,   241 primitive gaussians,   180 cartesian basis functions
    14 alpha electrons       13 beta electrons
       nuclear repulsion energy        86.6438107747 Hartrees.
 NAtoms=    8 NActive=    8 NUniq=    8 SFac= 1.00D+00 NAtFMM=   60 NAOKFM=F Big=F
 Integral buffers will be    131072 words long.
 Raffenetti 2 integral format.
 Two-electron integral symmetry is turned off.
 Nuclear repulsion after empirical dispersion term =       86.6414532355 Hartrees.
 One-electron integrals computed using PRISM.
 NBasis=   160 RedAO= T EigKep=  1.86D-03  NBF=   160
 NBsUse=   160 1.00D-06 EigRej= -1.00D+00 NBFU=   160
 Initial guess from the checkpoint file:  "/localscratch/347858/Gau-87646.chk"
 B after Tr=    -0.013564   -0.007690   -0.056401
         Rot=    0.999799   -0.018854   -0.001836    0.006624 Ang=  -2.30 deg.
 Initial guess <Sx>= 0.0000 <Sy>= 0.0000 <Sz>= 0.5000 <S**2>= 0.7686 S= 0.5092
 ExpMin= 1.03D-01 ExpMax= 1.53D+04 ExpMxC= 5.22D+02 IAcc=3 IRadAn=         5 AccDes= 0.00D+00
 Harris functional with IExCor=  419 and IRadAn=       5 diagonalized for initial guess.
 HarFok:  IExCor=  419 AccDes= 0.00D+00 IRadAn=         5 IDoV= 1 UseB2=F ITyADJ=14
 ICtDFT=  3500011 ScaDFX=  1.000000  1.000000  1.000000  1.000000
 FoFCou: FMM=F IPFlag=           0 FMFlag=      100000 FMFlg1=           0
         NFxFlg=           0 DoJE=T BraDBF=F KetDBF=T FulRan=T
         wScrn=  0.000000 ICntrl=       500 IOpCl=  0 I1Cent=   200000004 NGrid=           0
         NMat0=    1 NMatS0=      1 NMatT0=    0 NMatD0=    1 NMtDS0=    0 NMtDT0=    0
 Symmetry not used in FoFCou.
 Keep R1 and R2 ints in memory in canonical form, NReq=206285696.
 Requested convergence on RMS density matrix=1.00D-08 within 500 cycles.
 Requested convergence on MAX density matrix=1.00D-06.
 Requested convergence on             energy=1.00D-06.
 No special actions if energy rises.
 Integral accuracy reduced to 1.0D-05 until final iterations.
 Initial convergence to 1.0D-05 achieved.  Increase integral accuracy.
 SCF Done:  E(UB2PLYPD3) =  -191.062152656     A.U. after   15 cycles
            NFock= 15  Conv=0.46D-08     -V/T= 2.0042
 <Sx>= 0.0000 <Sy>= 0.0000 <Sz>= 0.5000 <S**2>= 0.7686 S= 0.5093
 <L.S>=  0.00000000000    
 Annihilation of the first spin contaminant:
 S**2 before annihilation     0.7686,   after     0.7501
 DoSCS=T DFT=T ScalE2(SS,OS)=  0.270000  0.270000
 ExpMin= 1.03D-01 ExpMax= 1.53D+04 ExpMxC= 5.22D+02 IAcc=3 IRadAn=         5 AccDes= 0.00D+00
 HarFok:  IExCor=  205 AccDes= 0.00D+00 IRadAn=         5 IDoV=-2 UseB2=F ITyADJ=14
 ICtDFT= 12500011 ScaDFX=  1.000000  1.000000  1.000000  1.000000
 Range of M.O.s used for correlation:     4   160
 NBasis=   160 NAE=    14 NBE=    13 NFC=     3 NFV=     0
 NROrb=    157 NOA=    11 NOB=    10 NVA=   146 NVB=   147

 **** Warning!!: The largest alpha MO coefficient is  0.11983289D+02


 **** Warning!!: The largest beta MO coefficient is  0.11983202D+02

 DoSCS=T DFT=T ScalE2(SS,OS)=  0.270000  0.270000
 Fully direct method using O(ONN) memory.
 JobTyp=2 Pass  1:  I=   4 to  14 NPSUse= 40 ParTrn=T ParDer=T DoDerP=T.
 JobTyp=3 Pass  1:  I=   4 to  13 NPSUse= 40 ParTrn=T ParDer=T DoDerP=T.
 Spin components of T(2) and E(2):
     alpha-alpha T2 =       0.3310318955D-01 E2=     -0.2707301141D-01
     alpha-beta  T2 =       0.2125212726D+00 E2=     -0.1685405327D+00
     beta-beta   T2 =       0.3858134899D-01 E2=     -0.2746246189D-01
 (S**2,0)=  0.76860D+00           (S**2,1)=  0.74434D+00
 Scaling Projection term by:   0.270000
 E(PUHF)=      -0.19106782385D+03        E(PMP2)=      -0.19128576342D+03
 E2(B2PLYPD3) =    -0.2230760060D+00 E(B2PLYPD3) =    -0.19128522866213D+03
          IDoAtm=11111111
          Differentiating once with respect to electric field.
                with respect to dipole field.
          Differentiating once with respect to nuclear coordinates.
 Keep R1 and R2 ints in memory in canonical form, NReq=206291324.
          There are     1 degrees of freedom in the 1st order CPHF.  IDoFFX=0 NUNeed=     1.
 LinEq1:  Iter=  0 NonCon=     1 RMS=1.48D-03 Max=6.36D-02 NDo=     1
 AX will form     1 AO Fock derivatives at one time.
 LinEq1:  Iter=  1 NonCon=     1 RMS=3.89D-04 Max=5.85D-03 NDo=     1
 LinEq1:  Iter=  2 NonCon=     1 RMS=2.57D-04 Max=4.78D-03 NDo=     1
 LinEq1:  Iter=  3 NonCon=     1 RMS=1.32D-04 Max=2.14D-03 NDo=     1
 LinEq1:  Iter=  4 NonCon=     1 RMS=7.04D-05 Max=8.62D-04 NDo=     1
 LinEq1:  Iter=  5 NonCon=     1 RMS=3.76D-05 Max=5.33D-04 NDo=     1
 LinEq1:  Iter=  6 NonCon=     1 RMS=2.53D-05 Max=4.88D-04 NDo=     1
 LinEq1:  Iter=  7 NonCon=     1 RMS=8.30D-06 Max=1.18D-04 NDo=     1
 LinEq1:  Iter=  8 NonCon=     1 RMS=2.86D-06 Max=4.08D-05 NDo=     1
 LinEq1:  Iter=  9 NonCon=     1 RMS=8.65D-07 Max=1.32D-05 NDo=     1
 LinEq1:  Iter= 10 NonCon=     1 RMS=2.34D-07 Max=3.26D-06 NDo=     1
 LinEq1:  Iter= 11 NonCon=     1 RMS=6.79D-08 Max=1.28D-06 NDo=     1
 LinEq1:  Iter= 12 NonCon=     1 RMS=1.70D-08 Max=4.83D-07 NDo=     1
 LinEq1:  Iter= 13 NonCon=     1 RMS=5.04D-09 Max=1.43D-07 NDo=     1
 LinEq1:  Iter= 14 NonCon=     1 RMS=1.47D-09 Max=2.53D-08 NDo=     1
 LinEq1:  Iter= 15 NonCon=     1 RMS=3.86D-10 Max=4.18D-09 NDo=     1
 LinEq1:  Iter= 16 NonCon=     0 RMS=9.90D-11 Max=9.91D-10 NDo=     1
 Linear equations converged to 1.000D-10 1.000D-09 after    16 iterations.
 End of Minotr F.D. properties file   721 does not exist.
 End of Minotr F.D. properties file   722 does not exist.
 End of Minotr F.D. properties file   788 does not exist.
 Calling FoFJK, ICntrl=  10002127 FMM=F ISym2X=0 I1Cent= 0 IOpClX= 1 NMat=1 NMatS=1 NMatT=0.
 -------------------------------------------------------------------
 Center     Atomic                   Forces (Hartrees/Bohr)
 Number     Number              X              Y              Z
 -------------------------------------------------------------------
      1        6          -0.000862410    0.000116224   -0.000490802
      2        1           0.000235914    0.000521912    0.000345794
      3        1          -0.000318635    0.000562337   -0.000234022
      4        1          -0.000004222   -0.000820559   -0.000610123
      5        8           0.000181895   -0.001209321    0.002186737
      6        8           0.000510526    0.000697761   -0.001224919
      7        1           0.000270168    0.000176117   -0.000084876
      8        1          -0.000013236   -0.000044470    0.000112211
 -------------------------------------------------------------------
 Cartesian Forces:  Max     0.002186737 RMS     0.000695675

 GradGradGradGradGradGradGradGradGradGradGradGradGradGradGradGradGradGrad
 Berny optimization.
 FormGI is forming the generalized inverse of G from B-inverse, IUseBI=4.
 Internal  Forces:  Max     0.003377847 RMS     0.001279708
 Search for a saddle point.
 Step number   1 out of a maximum of  100 on scan point     2 out of    37
 All quantities printed in internal units (Hartrees-Bohrs-Radians)
 Swapping is turned off.
 Second derivative matrix not updated -- first step.
 The second derivative matrix:
                          R1        R2        R3        R4        R5
           R1           0.33379
           R2           0.00229   0.34780
           R3           0.00325   0.00207   0.34296
           R4           0.01615   0.00853   0.01238   0.31694
           R5           0.00102  -0.00191  -0.00141   0.01851   0.29235
           R6           0.00101  -0.00016   0.00182  -0.00433   0.05563
           R7          -0.00154  -0.00012  -0.00041   0.00377  -0.02114
           A1           0.00992   0.00829  -0.01067  -0.02749   0.00511
           A2           0.01070  -0.01011   0.00992  -0.02495  -0.00161
           A3           0.00369  -0.00689  -0.00636   0.03170  -0.01485
           A4          -0.01195   0.00786   0.00959  -0.02623   0.00400
           A5          -0.00632   0.00881  -0.00535   0.01506   0.02016
           A6          -0.00678  -0.00697   0.00201   0.03354  -0.01203
           A7          -0.00347   0.00992  -0.00703   0.03195   0.06467
           A8           0.00601   0.00010  -0.00194  -0.00646   0.05768
           A9           0.00093   0.00006  -0.00028  -0.00168  -0.00070
           A10         -0.00139  -0.00005   0.00099   0.00034  -0.00024
           D1          -0.00328  -0.00021   0.00310  -0.00000  -0.00306
           D2          -0.00142  -0.00008  -0.00094   0.00229   0.00282
                          R6        R7        A1        A2        A3
           R6           0.10725
           R7           0.11394   0.04491
           A1          -0.00261  -0.00022   0.11660
           A2          -0.00103   0.00066  -0.01844   0.11143
           A3           0.00603  -0.00184  -0.02413  -0.02470   0.15726
           A4          -0.00134   0.00115  -0.01818  -0.01961  -0.03270
           A5          -0.00258  -0.00014  -0.01991  -0.03152  -0.03719
           A6           0.00150   0.00034  -0.03443  -0.02508  -0.03788
           A7          -0.00579   0.00311  -0.00343  -0.00105  -0.01503
           A8          -0.01577   0.00582   0.00632  -0.00105   0.00180
           A9           0.00063   0.00048   0.00179  -0.00026  -0.00045
           A10          0.00093   0.00125  -0.00281  -0.00014  -0.00262
           D1           0.00133   0.00193  -0.00830  -0.00081  -0.00555
           D2          -0.00478  -0.00025   0.00227   0.00068   0.00583
                          A4        A5        A6        A7        A8
           A4           0.11498
           A5          -0.02158   0.15479
           A6          -0.02220  -0.03805   0.15686
           A7          -0.00092   0.03582  -0.01423   0.32670
           A8          -0.00632   0.00302  -0.00356  -0.00115   0.20051
           A9          -0.00079   0.00044  -0.00068  -0.00190   0.00544
           A10          0.00310  -0.00018   0.00263   0.00184  -0.01076
           D1           0.00810  -0.00236   0.00880   0.00034  -0.01576
           D2          -0.00375  -0.00252  -0.00260  -0.00578   0.00233
                          A9        A10       D1        D2
           A9           0.02070
           A10         -0.00476   0.02225
           D1          -0.00272   0.00685   0.02024
           D2          -0.00292  -0.00614  -0.00471   0.01785
 ITU=  0
     Eigenvalues ---   -0.05331   0.01074   0.02219   0.02624   0.12770
     Eigenvalues ---    0.12919   0.13212   0.15922   0.17882   0.19601
     Eigenvalues ---    0.20601   0.27222   0.32380   0.33807   0.34805
     Eigenvalues ---    0.35693   0.411921000.000001000.00000
 Eigenvectors required to have negative eigenvalues:
                          R7        R6        R5        A8        D2
   1                    0.75892  -0.61402   0.17385  -0.09670  -0.04928
                          A7        A3        R4        A10       A4
   1                   -0.04105   0.03537  -0.02845  -0.01970  -0.01816
 RFO step:  Lambda0=3.468480165D-06 Lambda=-1.32098248D-04.
 Linear search not attempted -- option 19 set.
 Iteration  1 RMS(Cart)=  0.01527274 RMS(Int)=  0.00024841
 Iteration  2 RMS(Cart)=  0.00030483 RMS(Int)=  0.00000727
 Iteration  3 RMS(Cart)=  0.00000009 RMS(Int)=  0.00000727
 Iteration  1 RMS(Cart)=  0.00000000 RMS(Int)=  0.00000000
 Variable       Old X    -DE/DX   Delta X   Delta X   Delta X     New X
                                 (Linear)    (Quad)   (Total)
    R1        2.06281   0.00040   0.00000   0.00027   0.00027   2.06308
    R2        2.05486   0.00011   0.00000   0.00006   0.00006   2.05493
    R3        2.05596  -0.00059   0.00000  -0.00086  -0.00086   2.05510
    R4        2.68719   0.00057   0.00000   0.00182   0.00182   2.68901
    R5        2.64840   0.00063   0.00000   0.00071   0.00071   2.64911
    R6        2.08708  -0.00011   0.00000  -0.00622  -0.00622   2.08085
    R7        1.94727  -0.00038   0.00000   0.00726   0.00726   1.95453
    A1        1.92010   0.00133   0.00000   0.00773   0.00772   1.92782
    A2        1.92017   0.00009   0.00000   0.00112   0.00111   1.92128
    A3        1.92729   0.00084   0.00000   0.00299   0.00298   1.93026
    A4        1.92874  -0.00147   0.00000  -0.00857  -0.00858   1.92016
    A5        1.83398   0.00084   0.00000   0.00358   0.00357   1.83755
    A6        1.93209  -0.00160   0.00000  -0.00674  -0.00675   1.92534
    A7        1.88335   0.00095   0.00000   0.00262   0.00262   1.88597
    A8        1.82979   0.00274   0.00000   0.00960   0.00960   1.83939
    A9        3.08181   0.00056   0.00000   0.01924   0.01924   3.10106
   A10        3.09038  -0.00111   0.00000  -0.03218  -0.03218   3.05820
    D1        2.56920  -0.00338   0.00000   0.00000   0.00000   2.56920
    D2       -1.55266   0.00065   0.00000   0.02148   0.02148  -1.53118
         Item               Value     Threshold  Converged?
 Maximum Force            0.002740     0.000450     NO 
 RMS     Force            0.001046     0.000300     NO 
 Maximum Displacement     0.028481     0.001800     NO 
 RMS     Displacement     0.015247     0.001200     NO 
 Predicted change in Energy=-6.446034D-05
 GradGradGradGradGradGradGradGradGradGradGradGradGradGradGradGradGradGrad

                          Input orientation:                          
 ---------------------------------------------------------------------
 Center     Atomic      Atomic             Coordinates (Angstroms)
 Number     Number       Type             X           Y           Z
 ---------------------------------------------------------------------
      1          6           0       -1.169185    0.271950    0.088168
      2          1           0       -1.088294    1.304732   -0.256364
      3          1           0       -2.070076   -0.191154   -0.307321
      4          1           0       -1.181023    0.240781    1.175168
      5          8           0       -0.092832   -0.509932   -0.416757
      6          8           0        1.065075   -0.166304    0.294827
      7          1           0        1.498470    0.688434   -0.247483
      8          1           0        1.875952    1.545946   -0.685591
 ---------------------------------------------------------------------
                    Distance matrix (angstroms):
                    1          2          3          4          5
     1  C    0.000000
     2  H    1.091735   0.000000
     3  H    1.087420   1.790019   0.000000
     4  H    1.087510   1.786022   1.781784   0.000000
     5  O    1.422964   2.075976   2.005765   2.069288   0.000000
     6  O    2.286197   2.665475   3.192550   2.446565   1.401849
     7  H    2.720754   2.659182   3.675837   3.066596   1.999243
     8  H    3.390373   3.004858   4.328018   3.809327   2.859198
                    6          7          8
     6  O    0.000000
     7  H    1.101139   0.000000
     8  H    2.133199   1.034291   0.000000
 Symmetry turned off by external request.
 Stoichiometry    CH5O2(2)
 Framework group  C1[X(CH5O2)]
 Deg. of freedom    18
 Full point group                 C1      NOp   1
 Rotational constants (GHZ):          31.9672744           9.4900347           8.6933836
 Standard basis: CC-pVTZ (5D, 7F)
   160 basis functions,   241 primitive gaussians,   180 cartesian basis functions
    14 alpha electrons       13 beta electrons
       nuclear repulsion energy        86.5919209513 Hartrees.
 NAtoms=    8 NActive=    8 NUniq=    8 SFac= 1.00D+00 NAtFMM=   60 NAOKFM=F Big=F
 Integral buffers will be    131072 words long.
 Raffenetti 2 integral format.
 Two-electron integral symmetry is turned off.
 Nuclear repulsion after empirical dispersion term =       86.5895663670 Hartrees.
 One-electron integrals computed using PRISM.
 NBasis=   160 RedAO= T EigKep=  1.86D-03  NBF=   160
 NBsUse=   160 1.00D-06 EigRej= -1.00D+00 NBFU=   160
 Initial guess from the checkpoint file:  "/localscratch/347858/Gau-87646.chk"
 B after Tr=    -0.000470   -0.005116    0.002557
         Rot=    0.999992    0.003897   -0.001084   -0.000525 Ang=   0.47 deg.
 Initial guess <Sx>= 0.0000 <Sy>= 0.0000 <Sz>= 0.5000 <S**2>= 0.7686 S= 0.5093
 ExpMin= 1.03D-01 ExpMax= 1.53D+04 ExpMxC= 5.22D+02 IAcc=3 IRadAn=         5 AccDes= 0.00D+00
 Harris functional with IExCor=  419 and IRadAn=       5 diagonalized for initial guess.
 HarFok:  IExCor=  419 AccDes= 0.00D+00 IRadAn=         5 IDoV= 1 UseB2=F ITyADJ=14
 ICtDFT=  3500011 ScaDFX=  1.000000  1.000000  1.000000  1.000000
 FoFCou: FMM=F IPFlag=           0 FMFlag=      100000 FMFlg1=           0
         NFxFlg=           0 DoJE=T BraDBF=F KetDBF=T FulRan=T
         wScrn=  0.000000 ICntrl=       500 IOpCl=  0 I1Cent=   200000004 NGrid=           0
         NMat0=    1 NMatS0=      1 NMatT0=    0 NMatD0=    1 NMtDS0=    0 NMtDT0=    0
 Symmetry not used in FoFCou.
 Keep R1 and R2 ints in memory in canonical form, NReq=206285696.
 Requested convergence on RMS density matrix=1.00D-08 within 500 cycles.
 Requested convergence on MAX density matrix=1.00D-06.
 Requested convergence on             energy=1.00D-06.
 No special actions if energy rises.
 Integral accuracy reduced to 1.0D-05 until final iterations.
 Initial convergence to 1.0D-05 achieved.  Increase integral accuracy.
 SCF Done:  E(UB2PLYPD3) =  -191.062220873     A.U. after   13 cycles
            NFock= 13  Conv=0.84D-08     -V/T= 2.0042
 <Sx>= 0.0000 <Sy>= 0.0000 <Sz>= 0.5000 <S**2>= 0.7684 S= 0.5091
 <L.S>=  0.00000000000    
 Annihilation of the first spin contaminant:
 S**2 before annihilation     0.7684,   after     0.7501
 DoSCS=T DFT=T ScalE2(SS,OS)=  0.270000  0.270000
 ExpMin= 1.03D-01 ExpMax= 1.53D+04 ExpMxC= 5.22D+02 IAcc=3 IRadAn=         5 AccDes= 0.00D+00
 HarFok:  IExCor=  205 AccDes= 0.00D+00 IRadAn=         5 IDoV=-2 UseB2=F ITyADJ=14
 ICtDFT= 12500011 ScaDFX=  1.000000  1.000000  1.000000  1.000000
 Range of M.O.s used for correlation:     4   160
 NBasis=   160 NAE=    14 NBE=    13 NFC=     3 NFV=     0
 NROrb=    157 NOA=    11 NOB=    10 NVA=   146 NVB=   147

 **** Warning!!: The largest alpha MO coefficient is  0.11983670D+02


 **** Warning!!: The largest beta MO coefficient is  0.11983584D+02

 DoSCS=T DFT=T ScalE2(SS,OS)=  0.270000  0.270000
 Fully direct method using O(ONN) memory.
 JobTyp=2 Pass  1:  I=   4 to  14 NPSUse= 40 ParTrn=T ParDer=T DoDerP=T.
 JobTyp=3 Pass  1:  I=   4 to  13 NPSUse= 40 ParTrn=T ParDer=T DoDerP=T.
 Spin components of T(2) and E(2):
     alpha-alpha T2 =       0.3310987953D-01 E2=     -0.2706739766D-01
     alpha-beta  T2 =       0.2124990294D+00 E2=     -0.1685348754D+00
     beta-beta   T2 =       0.3856961022D-01 E2=     -0.2747059846D-01
 (S**2,0)=  0.76836D+00           (S**2,1)=  0.74443D+00
 Scaling Projection term by:   0.270000
 E(PUHF)=      -0.19106780271D+03        E(PMP2)=      -0.19128582076D+03
 E2(B2PLYPD3) =    -0.2230728715D+00 E(B2PLYPD3) =    -0.19128529374453D+03
          IDoAtm=11111111
          Differentiating once with respect to electric field.
                with respect to dipole field.
          Differentiating once with respect to nuclear coordinates.
 Keep R1 and R2 ints in memory in canonical form, NReq=206291324.
          There are     1 degrees of freedom in the 1st order CPHF.  IDoFFX=0 NUNeed=     1.
 LinEq1:  Iter=  0 NonCon=     1 RMS=1.48D-03 Max=6.34D-02 NDo=     1
 AX will form     1 AO Fock derivatives at one time.
 LinEq1:  Iter=  1 NonCon=     1 RMS=3.89D-04 Max=5.78D-03 NDo=     1
 LinEq1:  Iter=  2 NonCon=     1 RMS=2.56D-04 Max=4.84D-03 NDo=     1
 LinEq1:  Iter=  3 NonCon=     1 RMS=1.31D-04 Max=2.08D-03 NDo=     1
 LinEq1:  Iter=  4 NonCon=     1 RMS=6.99D-05 Max=8.71D-04 NDo=     1
 LinEq1:  Iter=  5 NonCon=     1 RMS=3.72D-05 Max=5.39D-04 NDo=     1
 LinEq1:  Iter=  6 NonCon=     1 RMS=2.48D-05 Max=4.89D-04 NDo=     1
 LinEq1:  Iter=  7 NonCon=     1 RMS=8.20D-06 Max=1.22D-04 NDo=     1
 LinEq1:  Iter=  8 NonCon=     1 RMS=2.84D-06 Max=4.09D-05 NDo=     1
 LinEq1:  Iter=  9 NonCon=     1 RMS=8.59D-07 Max=1.36D-05 NDo=     1
 LinEq1:  Iter= 10 NonCon=     1 RMS=2.32D-07 Max=2.94D-06 NDo=     1
 LinEq1:  Iter= 11 NonCon=     1 RMS=6.63D-08 Max=1.08D-06 NDo=     1
 LinEq1:  Iter= 12 NonCon=     1 RMS=1.58D-08 Max=4.42D-07 NDo=     1
 LinEq1:  Iter= 13 NonCon=     1 RMS=4.59D-09 Max=1.50D-07 NDo=     1
 LinEq1:  Iter= 14 NonCon=     1 RMS=1.40D-09 Max=3.14D-08 NDo=     1
 LinEq1:  Iter= 15 NonCon=     1 RMS=3.74D-10 Max=4.38D-09 NDo=     1
 LinEq1:  Iter= 16 NonCon=     0 RMS=9.67D-11 Max=9.48D-10 NDo=     1
 Linear equations converged to 1.000D-10 1.000D-09 after    16 iterations.
 End of Minotr F.D. properties file   721 does not exist.
 End of Minotr F.D. properties file   722 does not exist.
 End of Minotr F.D. properties file   788 does not exist.
 Calling FoFJK, ICntrl=  10002127 FMM=F ISym2X=0 I1Cent= 0 IOpClX= 1 NMat=1 NMatS=1 NMatT=0.
 -------------------------------------------------------------------
 Center     Atomic                   Forces (Hartrees/Bohr)
 Number     Number              X              Y              Z
 -------------------------------------------------------------------
      1        6           0.000068364   -0.000937410    0.001138934
      2        1           0.000003239    0.000046296   -0.000006620
      3        1           0.000118387    0.000751690   -0.001097683
      4        1           0.000003792   -0.000008693    0.000025618
      5        8           0.000002049   -0.000014051    0.000351845
      6        8          -0.000022958    0.000107429    0.000036918
      7        1          -0.000021398   -0.000094552    0.000017555
      8        1          -0.000151475    0.000149291   -0.000466566
 -------------------------------------------------------------------
 Cartesian Forces:  Max     0.001138934 RMS     0.000427080

 GradGradGradGradGradGradGradGradGradGradGradGradGradGradGradGradGradGrad
 Berny optimization.
 FormGI is forming the generalized inverse of G from B-inverse, IUseBI=4.
 Internal  Forces:  Max     0.002665129 RMS     0.000617931
 Search for a saddle point.
 Step number   2 out of a maximum of  100 on scan point     2 out of    37
 All quantities printed in internal units (Hartrees-Bohrs-Radians)
 Swapping is turned off.
 Update second derivatives using D2CorX and points    1    2
 The second derivative matrix:
                          R1        R2        R3        R4        R5
           R1           0.33377
           R2           0.00229   0.34780
           R3           0.00326   0.00206   0.34297
           R4           0.01617   0.00854   0.01230   0.31710
           R5           0.00101  -0.00190  -0.00141   0.01857   0.29234
           R6           0.00115  -0.00021   0.00188  -0.00490   0.05568
           R7          -0.00170  -0.00006  -0.00048   0.00444  -0.02120
           A1           0.00975   0.00836  -0.01075  -0.02679   0.00506
           A2           0.01067  -0.01010   0.00991  -0.02485  -0.00162
           A3           0.00361  -0.00686  -0.00638   0.03197  -0.01488
           A4          -0.01178   0.00779   0.00969  -0.02701   0.00405
           A5          -0.00636   0.00884  -0.00542   0.01539   0.02018
           A6          -0.00665  -0.00703   0.00209   0.03292  -0.01200
           A7          -0.00344   0.00993  -0.00713   0.03219   0.06476
           A8           0.00581   0.00018  -0.00205  -0.00558   0.05763
           A9           0.00055   0.00022  -0.00052   0.00008  -0.00079
           A10         -0.00072  -0.00032   0.00135  -0.00260  -0.00005
           D1          -0.00327  -0.00021   0.00309  -0.00000  -0.00305
           D2          -0.00188   0.00010  -0.00118   0.00425   0.00268
                          R6        R7        A1        A2        A3
           R6           0.10703
           R7           0.11421   0.04458
           A1          -0.00239  -0.00050   0.11638
           A2          -0.00095   0.00056  -0.01852   0.11141
           A3           0.00618  -0.00202  -0.02430  -0.02474   0.15716
           A4          -0.00144   0.00129  -0.01811  -0.01954  -0.03259
           A5          -0.00283   0.00015  -0.01957  -0.03149  -0.03708
           A6           0.00139   0.00048  -0.03434  -0.02502  -0.03778
           A7          -0.00657   0.00401  -0.00247  -0.00091  -0.01466
           A8          -0.01561   0.00562   0.00620  -0.00114   0.00165
           A9           0.00083   0.00021   0.00168  -0.00041  -0.00068
           A10          0.00027   0.00209  -0.00223   0.00017  -0.00207
           D1           0.00124   0.00204  -0.00820  -0.00079  -0.00551
           D2          -0.00427  -0.00090   0.00179   0.00046   0.00542
                          A4        A5        A6        A7        A8
           A4           0.11509
           A5          -0.02201   0.15508
           A6          -0.02215  -0.03837   0.15688
           A7          -0.00198   0.03627  -0.01507   0.32704
           A8          -0.00639   0.00349  -0.00358   0.00005   0.20053
           A9          -0.00109   0.00142  -0.00084   0.00050   0.00566
           A10          0.00317  -0.00169   0.00255  -0.00217  -0.01065
           D1           0.00798  -0.00232   0.00871   0.00034  -0.01563
           D2          -0.00370  -0.00154  -0.00247  -0.00310   0.00215
                          A9        A10       D1        D2
           A9           0.02147
           A10         -0.00511   0.02120
           D1          -0.00246   0.00641   0.02024
           D2          -0.00290  -0.00507  -0.00441   0.01689
 ITU=  0  0
     Eigenvalues ---   -0.05396   0.01078   0.02155   0.02570   0.12759
     Eigenvalues ---    0.12918   0.13223   0.15969   0.17884   0.19589
     Eigenvalues ---    0.20614   0.27181   0.32344   0.33805   0.34805
     Eigenvalues ---    0.35690   0.412821000.000001000.00000
 Eigenvectors required to have negative eigenvalues:
                          R7        R6        R5        A8        A7
   1                    0.75897  -0.61379   0.17412  -0.09619  -0.04337
                          D2        A3        A10       R4        A4
   1                   -0.03616   0.03588  -0.03555  -0.03040  -0.01918
 RFO step:  Lambda0=1.400243540D-07 Lambda=-7.51319543D-07.
 Linear search not attempted -- option 19 set.
 Iteration  1 RMS(Cart)=  0.00266859 RMS(Int)=  0.00000366
 Iteration  2 RMS(Cart)=  0.00000344 RMS(Int)=  0.00000000
 Iteration  3 RMS(Cart)=  0.00000000 RMS(Int)=  0.00000000
 Iteration  1 RMS(Cart)=  0.00000000 RMS(Int)=  0.00000000
 Variable       Old X    -DE/DX   Delta X   Delta X   Delta X     New X
                                 (Linear)    (Quad)   (Total)
    R1        2.06308   0.00005   0.00000   0.00016   0.00016   2.06324
    R2        2.05493  -0.00002   0.00000  -0.00002  -0.00002   2.05491
    R3        2.05510   0.00003   0.00000   0.00008   0.00008   2.05518
    R4        2.68901  -0.00021   0.00000  -0.00059  -0.00059   2.68842
    R5        2.64911   0.00001   0.00000  -0.00007  -0.00007   2.64904
    R6        2.08085  -0.00004   0.00000   0.00106   0.00106   2.08191
    R7        1.95453   0.00005   0.00000  -0.00127  -0.00127   1.95326
    A1        1.92782   0.00004   0.00000   0.00010   0.00010   1.92792
    A2        1.92128   0.00002   0.00000  -0.00000  -0.00000   1.92128
    A3        1.93026   0.00004   0.00000   0.00006   0.00006   1.93033
    A4        1.92016   0.00001   0.00000   0.00010   0.00010   1.92026
    A5        1.83755  -0.00011   0.00000  -0.00035  -0.00035   1.83720
    A6        1.92534  -0.00000   0.00000   0.00008   0.00008   1.92542
    A7        1.88597  -0.00028   0.00000  -0.00069  -0.00069   1.88528
    A8        1.83939   0.00000   0.00000   0.00004   0.00004   1.83943
    A9        3.10106  -0.00004   0.00000  -0.00194  -0.00194   3.09912
   A10        3.05820  -0.00005   0.00000  -0.00226  -0.00226   3.05594
    D1        2.56920  -0.00267   0.00000   0.00000   0.00000   2.56920
    D2       -1.53118   0.00006   0.00000   0.00274   0.00274  -1.52843
         Item               Value     Threshold  Converged?
 Maximum Force            0.000281     0.000450     YES
 RMS     Force            0.000092     0.000300     YES
 Maximum Displacement     0.007075     0.001800     NO 
 RMS     Displacement     0.002669     0.001200     NO 
 Predicted change in Energy=-3.056474D-07
 GradGradGradGradGradGradGradGradGradGradGradGradGradGradGradGradGradGrad

                          Input orientation:                          
 ---------------------------------------------------------------------
 Center     Atomic      Atomic             Coordinates (Angstroms)
 Number     Number       Type             X           Y           Z
 ---------------------------------------------------------------------
      1          6           0       -1.168125    0.272108    0.087970
      2          1           0       -1.085777    1.304549   -0.257500
      3          1           0       -2.069545   -0.190225   -0.307194
      4          1           0       -1.179987    0.241915    1.175041
      5          8           0       -0.093258   -0.511680   -0.416286
      6          8           0        1.064989   -0.167616    0.294460
      7          1           0        1.497582    0.688125   -0.248043
      8          1           0        1.872208    1.547278   -0.683801
 ---------------------------------------------------------------------
                    Distance matrix (angstroms):
                    1          2          3          4          5
     1  C    0.000000
     2  H    1.091818   0.000000
     3  H    1.087411   1.790145   0.000000
     4  H    1.087555   1.786124   1.781875   0.000000
     5  O    1.422652   2.075812   2.005230   2.069108   0.000000
     6  O    2.285343   2.664155   3.191833   2.446029   1.401811
     7  H    2.718818   2.655901   3.674151   3.064906   1.999651
     8  H    3.386047   2.998387   4.324137   3.804623   2.859008
                    6          7          8
     6  O    0.000000
     7  H    1.101697   0.000000
     8  H    2.132945   1.033622   0.000000
 Symmetry turned off by external request.
 Stoichiometry    CH5O2(2)
 Framework group  C1[X(CH5O2)]
 Deg. of freedom    18
 Full point group                 C1      NOp   1
 Rotational constants (GHZ):          31.9341051           9.5013635           8.6976461
 Standard basis: CC-pVTZ (5D, 7F)
   160 basis functions,   241 primitive gaussians,   180 cartesian basis functions
    14 alpha electrons       13 beta electrons
       nuclear repulsion energy        86.6040167963 Hartrees.
 NAtoms=    8 NActive=    8 NUniq=    8 SFac= 1.00D+00 NAtFMM=   60 NAOKFM=F Big=F
 Integral buffers will be    131072 words long.
 Raffenetti 2 integral format.
 Two-electron integral symmetry is turned off.
 Nuclear repulsion after empirical dispersion term =       86.6016610037 Hartrees.
 One-electron integrals computed using PRISM.
 NBasis=   160 RedAO= T EigKep=  1.86D-03  NBF=   160
 NBsUse=   160 1.00D-06 EigRej= -1.00D+00 NBFU=   160
 Initial guess from the checkpoint file:  "/localscratch/347858/Gau-87646.chk"
 B after Tr=     0.000130   -0.001433   -0.000024
         Rot=    1.000000    0.000149   -0.000051    0.000171 Ang=   0.03 deg.
 Initial guess <Sx>= 0.0000 <Sy>= 0.0000 <Sz>= 0.5000 <S**2>= 0.7684 S= 0.5091
 Keep R1 and R2 ints in memory in canonical form, NReq=206285696.
 Requested convergence on RMS density matrix=1.00D-08 within 500 cycles.
 Requested convergence on MAX density matrix=1.00D-06.
 Requested convergence on             energy=1.00D-06.
 No special actions if energy rises.
 SCF Done:  E(UB2PLYPD3) =  -191.062209011     A.U. after   11 cycles
            NFock= 11  Conv=0.74D-08     -V/T= 2.0042
 <Sx>= 0.0000 <Sy>= 0.0000 <Sz>= 0.5000 <S**2>= 0.7684 S= 0.5092
 <L.S>=  0.00000000000    
 Annihilation of the first spin contaminant:
 S**2 before annihilation     0.7684,   after     0.7501
 DoSCS=T DFT=T ScalE2(SS,OS)=  0.270000  0.270000
 ExpMin= 1.03D-01 ExpMax= 1.53D+04 ExpMxC= 5.22D+02 IAcc=3 IRadAn=         5 AccDes= 0.00D+00
 HarFok:  IExCor=  205 AccDes= 0.00D+00 IRadAn=         5 IDoV=-2 UseB2=F ITyADJ=14
 ICtDFT= 12500011 ScaDFX=  1.000000  1.000000  1.000000  1.000000
 Range of M.O.s used for correlation:     4   160
 NBasis=   160 NAE=    14 NBE=    13 NFC=     3 NFV=     0
 NROrb=    157 NOA=    11 NOB=    10 NVA=   146 NVB=   147

 **** Warning!!: The largest alpha MO coefficient is  0.11983675D+02


 **** Warning!!: The largest beta MO coefficient is  0.11983589D+02

 DoSCS=T DFT=T ScalE2(SS,OS)=  0.270000  0.270000
 Fully direct method using O(ONN) memory.
 JobTyp=2 Pass  1:  I=   4 to  14 NPSUse= 40 ParTrn=T ParDer=T DoDerP=T.
 JobTyp=3 Pass  1:  I=   4 to  13 NPSUse= 40 ParTrn=T ParDer=T DoDerP=T.
 Spin components of T(2) and E(2):
     alpha-alpha T2 =       0.3310768141D-01 E2=     -0.2706823770D-01
     alpha-beta  T2 =       0.2125264339D+00 E2=     -0.1685425219D+00
     beta-beta   T2 =       0.3858918726D-01 E2=     -0.2747427701D-01
 (S**2,0)=  0.76841D+00           (S**2,1)=  0.74441D+00
 Scaling Projection term by:   0.270000
 E(PUHF)=      -0.19106780683D+03        E(PMP2)=      -0.19128582263D+03
 E2(B2PLYPD3) =    -0.2230850366D+00 E(B2PLYPD3) =    -0.19128529404733D+03
          IDoAtm=11111111
          Differentiating once with respect to electric field.
                with respect to dipole field.
          Differentiating once with respect to nuclear coordinates.
 Keep R1 and R2 ints in memory in canonical form, NReq=206291324.
          There are     1 degrees of freedom in the 1st order CPHF.  IDoFFX=0 NUNeed=     1.
[...]
      2          1           0       -0.898605   -0.350506    0.659697
      3          1           0       -1.685795    1.229394    0.925619
      4          1           0       -1.690175    0.490619   -0.702017
      5          8           0        0.072157    1.348288   -0.025138
      6          8           0        0.793897    0.669358   -1.016351
      7          1           0        1.423415   -0.050737   -0.464520
      8          1           0        1.948887   -0.773874    0.048599
 ---------------------------------------------------------------------
                    Distance matrix (angstroms):
                    1          2          3          4          5
     1  C    0.000000
     2  H    1.091602   0.000000
     3  H    1.087382   1.785068   0.000000
     4  H    1.087983   1.785592   1.787459   0.000000
     5  O    1.421953   2.072988   2.002116   2.073541   0.000000
     6  O    2.283106   2.591104   3.199025   2.510253   1.401555
     7  H    2.723469   2.597211   3.638463   3.169214   1.994048
     8  H    3.380860   2.942939   4.241834   3.924938   2.833923
                    6          7          8
     6  O    0.000000
     7  H    1.104240   0.000000
     8  H    2.133316   1.030698   0.000000
 Symmetry turned off by external request.
 Stoichiometry    CH5O2(2)
 Framework group  C1[X(CH5O2)]
 Deg. of freedom    18
 Full point group                 C1      NOp   1
 Rotational constants (GHZ):          31.9790406           9.4879151           8.7401705

 **********************************************************************

            Population analysis using the SCF Density.

 **********************************************************************

 Alpha  occ. eigenvalues --  -19.81095 -19.80390 -10.67098  -1.29890  -1.04235
 Alpha  occ. eigenvalues --   -0.79189  -0.64776  -0.57411  -0.56094  -0.51838
 Alpha  occ. eigenvalues --   -0.45688  -0.41686  -0.38674  -0.34701
 Alpha virt. eigenvalues --    0.08804   0.11678   0.14525   0.14990   0.17499
 Alpha virt. eigenvalues --    0.20775   0.28844   0.30437   0.32408   0.42410
 Alpha virt. eigenvalues --    0.48609   0.49007   0.50336   0.51202   0.53104
 Alpha virt. eigenvalues --    0.53971   0.56015   0.57837   0.66647   0.67600
 Alpha virt. eigenvalues --    0.70119   0.77094   0.80387   0.83472   0.89899
 Alpha virt. eigenvalues --    0.92613   0.95270   1.00370   1.02639   1.05565
 Alpha virt. eigenvalues --    1.07303   1.13117   1.14596   1.16749   1.19027
 Alpha virt. eigenvalues --    1.30300   1.35342   1.37514   1.38327   1.45047
 Alpha virt. eigenvalues --    1.51042   1.60875   1.65131   1.76952   1.86441
 Alpha virt. eigenvalues --    1.96082   2.00333   2.05109   2.06912   2.10321
 Alpha virt. eigenvalues --    2.17995   2.22340   2.31899   2.35979   2.41903
 Alpha virt. eigenvalues --    2.47656   2.49367   2.56869   2.70722   2.82003
 Alpha virt. eigenvalues --    2.88677   2.91082   2.95372   3.01130   3.01760
 Alpha virt. eigenvalues --    3.06514   3.10101   3.11641   3.13824   3.15147
 Alpha virt. eigenvalues --    3.18411   3.25085   3.29006   3.39715   3.40994
 Alpha virt. eigenvalues --    3.47479   3.50709   3.51801   3.55603   3.57677
 Alpha virt. eigenvalues --    3.58300   3.61493   3.62180   3.64793   3.73300
 Alpha virt. eigenvalues --    3.82129   3.83027   3.85218   3.86465   3.92067
 Alpha virt. eigenvalues --    3.94987   3.95475   3.99939   4.08571   4.09778
 Alpha virt. eigenvalues --    4.16551   4.17640   4.23203   4.33944   4.34192
 Alpha virt. eigenvalues --    4.43441   4.51411   4.66411   4.69293   4.71481
 Alpha virt. eigenvalues --    4.81122   4.81956   4.92308   4.95954   4.98539
 Alpha virt. eigenvalues --    5.01354   5.05978   5.22961   5.29227   5.29938
 Alpha virt. eigenvalues --    5.33922   5.36170   5.37725   5.38307   5.45955
 Alpha virt. eigenvalues --    5.66567   5.77050   5.88510   5.91464   5.94631
 Alpha virt. eigenvalues --    6.06971   6.09495   6.24673   6.36214   6.48090
 Alpha virt. eigenvalues --    6.50920   6.61297   6.70606   6.75171   6.80801
 Alpha virt. eigenvalues --    6.93391   7.02575   7.05647   7.10185   7.40585
 Alpha virt. eigenvalues --    7.41967   7.59544   7.74121   9.97393  10.95894
 Alpha virt. eigenvalues --   13.35651
  Beta  occ. eigenvalues --  -19.80204 -19.79635 -10.67105  -1.27989  -1.01562
  Beta  occ. eigenvalues --   -0.78741  -0.60635  -0.55965  -0.55765  -0.48741
  Beta  occ. eigenvalues --   -0.44821  -0.37691  -0.35737
  Beta virt. eigenvalues --   -0.08437   0.08928   0.12440   0.14588   0.15074
  Beta virt. eigenvalues --    0.18642   0.22823   0.29716   0.30783   0.33773
  Beta virt. eigenvalues --    0.42885   0.49069   0.50433   0.51347   0.52318
  Beta virt. eigenvalues --    0.55097   0.55382   0.57334   0.59227   0.67058
  Beta virt. eigenvalues --    0.68356   0.72204   0.77538   0.82052   0.84483
  Beta virt. eigenvalues --    0.90201   0.93009   0.96328   1.01292   1.02967
  Beta virt. eigenvalues --    1.05900   1.07794   1.14129   1.15092   1.18431
  Beta virt. eigenvalues --    1.19271   1.30546   1.35467   1.37536   1.38387
  Beta virt. eigenvalues --    1.45925   1.51390   1.60958   1.66008   1.77174
  Beta virt. eigenvalues --    1.87928   1.96604   2.01232   2.07194   2.08576
  Beta virt. eigenvalues --    2.12294   2.18152   2.23965   2.32663   2.37197
  Beta virt. eigenvalues --    2.42630   2.48114   2.55027   2.57396   2.70806
  Beta virt. eigenvalues --    2.82074   2.88757   2.91104   2.95772   3.01546
  Beta virt. eigenvalues --    3.03345   3.08457   3.10614   3.12149   3.14960
  Beta virt. eigenvalues --    3.15450   3.18757   3.28684   3.32555   3.39779
  Beta virt. eigenvalues --    3.41420   3.48423   3.51525   3.52030   3.56400
  Beta virt. eigenvalues --    3.59077   3.60304   3.62626   3.63906   3.66374
  Beta virt. eigenvalues --    3.74817   3.83824   3.86223   3.88307   3.89234
  Beta virt. eigenvalues --    3.93469   3.94909   3.96216   4.01480   4.09928
  Beta virt. eigenvalues --    4.10871   4.16721   4.17689   4.23468   4.34134
  Beta virt. eigenvalues --    4.34303   4.43720   4.54121   4.68572   4.70481
  Beta virt. eigenvalues --    4.73303   4.81630   4.82418   4.92430   4.97132
  Beta virt. eigenvalues --    4.99094   5.01564   5.06427   5.23849   5.29443
  Beta virt. eigenvalues --    5.30395   5.34139   5.36886   5.38254   5.38835
  Beta virt. eigenvalues --    5.46292   5.67264   5.77854   5.90241   5.91873
  Beta virt. eigenvalues --    5.94863   6.07420   6.11316   6.25051   6.36491
  Beta virt. eigenvalues --    6.50919   6.52805   6.62576   6.72142   6.76970
  Beta virt. eigenvalues --    6.82876   6.94653   7.03143   7.07036   7.12026
  Beta virt. eigenvalues --    7.40937   7.43939   7.61352   7.75136   9.97947
  Beta virt. eigenvalues --   10.97061  13.35653
          Condensed to atoms (all electrons):
               1          2          3          4          5          6
     1  C    4.583990   0.396614   0.393830   0.409037   0.304258  -0.043083
     2  H    0.396614   0.663599  -0.030012  -0.059692  -0.045780  -0.002408
     3  H    0.393830  -0.030012   0.587917  -0.029720  -0.025674   0.006836
     4  H    0.409037  -0.059692  -0.029720   0.634098  -0.042240   0.002949
     5  O    0.304258  -0.045780  -0.025674  -0.042240   7.927381   0.076689
     6  O   -0.043083  -0.002408   0.006836   0.002949   0.076689   7.993858
     7  H   -0.000886   0.005726  -0.000724  -0.000549  -0.024762   0.221782
     8  H   -0.003312   0.002149   0.000196  -0.000139   0.001862  -0.062173
               7          8
     1  C   -0.000886  -0.003312
     2  H    0.005726   0.002149
     3  H   -0.000724   0.000196
     4  H   -0.000549  -0.000139
     5  O   -0.024762   0.001862
     6  O    0.221782  -0.062173
     7  H    0.436183   0.163882
     8  H    0.163882   0.943665
          Atomic-Atomic Spin Densities.
               1          2          3          4          5          6
     1  C   -0.005347   0.006909   0.000545  -0.004196  -0.000879  -0.002529
     2  H    0.006909  -0.001707  -0.000708  -0.000900  -0.000177   0.003506
     3  H    0.000545  -0.000708  -0.001470   0.001055  -0.000017  -0.000180
     4  H   -0.004196  -0.000900   0.001055   0.006253  -0.001116  -0.000197
     5  O   -0.000879  -0.000177  -0.000017  -0.001116   0.064226  -0.040611
     6  O   -0.002529   0.003506  -0.000180  -0.000197  -0.040611   0.483247
     7  H    0.003034  -0.003138   0.000005   0.001102   0.005596   0.009240
     8  H    0.000399  -0.005380   0.000114   0.001345   0.011504  -0.071632
               7          8
     1  C    0.003034   0.000399
     2  H   -0.003138  -0.005380
     3  H    0.000005   0.000114
     4  H    0.001102   0.001345
     5  O    0.005596   0.011504
     6  O    0.009240  -0.071632
     7  H   -0.152030   0.008999
     8  H    0.008999   0.763442
 Mulliken charges and spin densities:
               1          2
     1  C   -0.040447  -0.002064
     2  H    0.069804  -0.001594
     3  H    0.097351  -0.000657
     4  H    0.086256   0.003347
     5  O   -0.171735   0.038526
     6  O   -0.194449   0.380844
     7  H    0.199349  -0.127192
     8  H   -0.046130   0.708790
 Sum of Mulliken charges =  -0.00000   1.00000
 Mulliken charges and spin densities with hydrogens summed into heavy atoms:
               1          2
     1  C    0.212964  -0.000968
     5  O   -0.171735   0.038526
     6  O   -0.041230   0.962442
 Electronic spatial extent (au):  <R**2>=            253.4615
 Charge=             -0.0000 electrons
 Dipole moment (field-independent basis, Debye):
    X=             -1.1979    Y=             -1.3445    Z=              1.0101  Tot=              2.0647
 Quadrupole moment (field-independent basis, Debye-Ang):
   XX=            -17.2134   YY=            -21.9459   ZZ=            -20.7647
   XY=             -2.2225   XZ=              0.0454   YZ=              0.9102
 Traceless Quadrupole moment (field-independent basis, Debye-Ang):
   XX=              2.7613   YY=             -1.9712   ZZ=             -0.7901
   XY=             -2.2225   XZ=              0.0454   YZ=              0.9102
 Octapole moment (field-independent basis, Debye-Ang**2):
  XXX=              1.9569  YYY=            -45.0641  ZZZ=             13.7146  XYY=             -1.3387
  XXY=            -13.2477  XXZ=              4.4680  XZZ=             -1.0034  YZZ=            -14.2509
  YYZ=              5.3266  XYZ=              0.0730
 Hexadecapole moment (field-independent basis, Debye-Ang**3):
 XXXX=           -136.7537 YYYY=           -120.1459 ZZZZ=            -62.8742 XXXY=              8.4042
 XXXZ=             19.1502 YYYX=              9.3968 YYYZ=              9.5429 ZZZX=             20.8077
 ZZZY=              9.7522 XXYY=            -41.4328 XXZZ=            -32.5120 YYZZ=            -28.8194
 XXYZ=              4.9964 YYXZ=              5.7317 ZZXY=              1.4234
 N-N= 8.663688965759D+01 E-N=-6.232150416085D+02  KE= 1.902703731970D+02
                          Isotropic Fermi Contact Couplings
        Atom                 a.u.       MegaHertz       Gauss      10(-4) cm-1
     1  C(13)             -0.00409      -4.59383      -1.63919      -1.53234
     2  H(1)               0.00354      15.83540       5.65047       5.28212
     3  H(1)              -0.00003      -0.11389      -0.04064      -0.03799
     4  H(1)               0.00096       4.29525       1.53265       1.43274
     5  O(17)              0.01691     -10.24841      -3.65689      -3.41850
     6  O(17)             -0.01252       7.58845       2.70775       2.53124
     7  H(1)              -0.03452    -154.29216     -55.05528     -51.46632
     8  H(1)               0.21843     976.35998     348.38952     325.67863
 --------------------------------------------------------
       Center         ----  Spin Dipole Couplings  ----
                      3XX-RR        3YY-RR        3ZZ-RR
 --------------------------------------------------------
     1   Atom        0.005285      0.000926     -0.006211
     2   Atom        0.006055     -0.002745     -0.003310
     3   Atom        0.004118     -0.003019     -0.001099
     4   Atom        0.008448     -0.003963     -0.004485
     5   Atom       -0.020415      0.100685     -0.080270
     6   Atom       -0.351927      0.074476      0.277451
     7   Atom       -0.007447      0.048571     -0.041125
     8   Atom       -0.000893      0.000834      0.000059
 --------------------------------------------------------
                        XY            XZ            YZ
 --------------------------------------------------------
     1   Atom       -0.001017     -0.004911     -0.003109
     2   Atom        0.000946     -0.004761     -0.003248
     3   Atom       -0.001715     -0.003993      0.000456
     4   Atom        0.000737      0.000018      0.000161
     5   Atom       -0.232464      0.187113     -0.265446
     6   Atom       -0.667907      0.738005     -1.003888
     7   Atom       -0.147372      0.101330     -0.123224
     8   Atom       -0.000567     -0.001194      0.000624
 --------------------------------------------------------


 ---------------------------------------------------------------------------------
              Anisotropic Spin Dipole Couplings in Principal Axis System
 ---------------------------------------------------------------------------------

       Atom             a.u.   MegaHertz   Gauss  10(-4) cm-1        Axes

              Baa    -0.0091    -1.220    -0.435    -0.407  0.3269  0.3103  0.8927
     1 C(13)  Bbb     0.0020     0.267     0.095     0.089 -0.1287  0.9504 -0.2832
              Bcc     0.0071     0.953     0.340     0.318  0.9362  0.0223 -0.3506
 
              Baa    -0.0070    -3.755    -1.340    -1.252  0.2504  0.5485  0.7978
     2 H(1)   Bbb    -0.0014    -0.766    -0.273    -0.255 -0.3818  0.8132 -0.4392
              Bcc     0.0085     4.521     1.613     1.508  0.8896  0.1946 -0.4131
 
              Baa    -0.0037    -1.977    -0.705    -0.659  0.4325  0.7252  0.5358
     3 H(1)   Bbb    -0.0029    -1.539    -0.549    -0.513  0.2401 -0.6654  0.7068
              Bcc     0.0066     3.516     1.255     1.173  0.8691 -0.1771 -0.4619
 
              Baa    -0.0045    -2.419    -0.863    -0.807  0.0151 -0.2889  0.9573
     4 H(1)   Bbb    -0.0040    -2.112    -0.754    -0.704 -0.0572  0.9555  0.2892
              Bcc     0.0085     4.531     1.617     1.511  0.9982  0.0591  0.0021
 
              Baa    -0.2732    19.770     7.054     6.595 -0.1735  0.4961  0.8508
     5 O(17)  Bbb    -0.1981    14.334     5.115     4.781  0.8373  0.5291 -0.1378
              Bcc     0.4713   -34.104   -12.169   -11.376 -0.5185  0.6884 -0.5072
 
              Baa    -0.8410    60.854    21.714    20.299  0.8958  0.3415 -0.2845
     6 O(17)  Bbb    -0.8330    60.276    21.508    20.106 -0.0561  0.7218  0.6898
              Bcc     1.6740  -121.130   -43.222   -40.405  0.4410 -0.6020  0.6657
 
              Baa    -0.1295   -69.108   -24.659   -23.052  0.7111  0.6881  0.1440
     7 H(1)   Bbb    -0.1267   -67.577   -24.113   -22.541 -0.4232  0.2554  0.8693
              Bcc     0.2562   136.685    48.773    45.593 -0.5614  0.6792 -0.4728
 
              Baa    -0.0017    -0.912    -0.325    -0.304  0.8361  0.0524  0.5461
     8 H(1)   Bbb     0.0000     0.011     0.004     0.004  0.3523  0.7117 -0.6077
              Bcc     0.0017     0.901     0.321     0.300 -0.4205  0.7005  0.5766
 

 ---------------------------------------------------------------------------------

 1\1\GINC-N21\Scan\UB2PLYPD3-FC\CC-pVTZ\C1H5O2(2)\ROOT\13-Jun-2019\0\\#
  opt=(calcfc,ts,noeigentest,maxcyc=500,modredundant) uB2PLYPD3/cc-pvtz
  scf=maxcyc=500 nosymm\\Title Card Required\\0,2\C,-1.1256931094,0.621
 9129078,0.2187592417\H,-0.8986054547,-0.3505063927,0.6596965962\H,-1.6
 857950828,1.2293940551,0.9256194462\H,-1.6901754982,0.490619122,-0.702
 0171517\O,0.0721565269,1.3482876164,-0.0251384249\O,0.7938968162,0.669
 3575479,-1.0163510272\H,1.4234152316,-0.0507369942,-0.4645202162\H,1.9
 488865703,-0.7738738623,0.048598536\\Version=ES64L-G16RevB.01\HF=-191.
 0624727,-191.062209,-191.0615518,-191.0606201,-191.0596229,-191.058858
 ,-191.0586214,-191.0590066,-191.0598581,-191.060857,-191.0617394,-191.
 0623058,-191.0624683,-191.0621729,-191.0614915,-191.0605477,-191.05956
 83,-191.0588427,-191.0586183,-191.058957,-191.0597316,-191.0606915,-19
 1.0615929,-191.0622289,-191.0624692,-191.0622634,-191.0616388,-191.060
 7204,-191.0596991,-191.0588966,-191.0586137,-191.0589703,-191.0597908,
 -191.0607859,-191.0616797,-191.0622796,-191.0624688\MP2=-191.2855297,-
 191.285294,-191.2846285,-191.2836552,-191.2825844,-191.2817197,-191.28
 14016,-191.2817803,-191.2826677,-191.283733,-191.2846866,-191.2853247,
 -191.2855286,-191.2852602,-191.2845619,-191.2835657,-191.282504,-191.2
 816885,-191.2814015,-191.2817304,-191.2825296,-191.2835435,-191.284513
 4,-191.2852233,-191.2855247,-191.2853521,-191.2847263,-191.2837589,-19
 1.2826603,-191.2817525,-191.2814012,-191.2817514,-191.2826099,-191.283
 663,-191.2846283,-191.2852939,-191.2855298\PUHF=-191.0681313,-191.0678
 068,-191.0670766,-191.0660631,-191.0649843,-191.0641698,-191.06398,-19
 1.064523,-191.0655097,-191.0665908,-191.0674897,-191.0680325,-191.0681
 206,-191.0677531,-191.0669845,-191.0659534,-191.0649007,-191.0641476,-
 191.0639811,-191.064446,-191.0653393,-191.0663863,-191.0673184,-191.06
 79431,-191.0681396,-191.06787,-191.0671734,-191.066158,-191.0650537,-1
 91.0642004,-191.0639739,-191.0644815,-191.0654363,-191.0665069,-191.06
 74224,-191.067996,-191.0681266\PMP2-0=-191.2860632,-191.2858226,-191.2
 851521,-191.2841735,-191.2830972,-191.2822287,-191.2819144,-191.282307
 ,-191.283206,-191.2842775,-191.2852309,-191.2858653,-191.2860615,-191.
 2857871,-191.2850825,-191.2840807,-191.2830142,-191.2821968,-191.28191
 46,-191.2822544,-191.2830637,-191.2840843,-191.2850554,-191.2857627,-1
 91.2860594,-191.2858812,-191.2852504,-191.2842762,-191.2831723,-191.28
 22607,-191.2819142,-191.2822775,-191.2831474,-191.2842059,-191.2851716
 ,-191.2858334,-191.2860632\S2=0.768555,0.768409,0.768249,0.768071,0.76
 7876,0.767728,0.767822,0.768248,0.76861,0.768819,0.768838,0.768755,0.7
 68538,0.768362,0.768164,0.767972,0.767796,0.767708,0.767836,0.768167,0
 .768484,0.768706,0.768771,0.768719,0.768589,0.768426,0.768268,0.76804,
 0.767855,0.767706,0.767833,0.768231,0.76859,0.768778,0.768813,0.768721
 ,0.768551\S2-1=0.744349,0.744413,0.744509,0.744625,0.744739,0.744806,0
 .744761,0.744607,0.744467,0.744364,0.744315,0.744305,0.744354,0.744426
 ,0.744536,0.74466,0.744768,0.744813,0.744757,0.74463,0.744504,0.744398
 ,0.744338,0.744317,0.74434,0.744401,0.744493,0.744621,0.744741,0.74481
 1,0.744761,0.744611,0.744469,0.744371,0.744316,0.744311,0.74435\S2A=0.
 750069,0.750069,0.750068,0.750067,0.750065,0.750063,0.750063,0.750065,
 0.750067,0.750069,0.75007,0.75007,0.750069,0.750069,0.750068,0.750066,
 0.750065,0.750063,0.750063,0.750064,0.750066,0.750068,0.750069,0.75006
 9,0.750069,0.750069,0.750069,0.750067,0.750065,0.750063,0.750063,0.750
 065,0.750067,0.750069,0.750069,0.75007,0.750069\RMSD=7.245e-09,7.444e-
 09,9.541e-09,5.370e-09,9.854e-09,9.025e-09,4.634e-09,8.866e-09,6.486e-
 09,6.764e-09,4.999e-09,9.701e-09,3.664e-09,2.763e-09,8.669e-09,4.766e-
 09,3.956e-09,6.489e-09,6.648e-09,6.546e-09,7.227e-09,3.521e-09,7.246e-
 09,4.503e-09,5.587e-09,3.585e-09,2.820e-09,2.004e-09,4.512e-09,4.555e-
 09,2.636e-09,5.965e-09,7.552e-09,5.220e-09,3.000e-09,2.711e-09,9.516e-
 09\PG=C01 [X(C1H5O2)]\\@


 TOWERING GENIUS DISDAINS A BEATEN PATH.  IT SEEKS 
 REGIONS HITHERTO UNEXPLORED.

                                -- ABRAHAM LINCOLN
 Job cpu time:       1 days  4 hours 13 minutes  8.9 seconds.
 Elapsed time:       0 days  0 hours 57 minutes 33.6 seconds.
 File lengths (MBytes):  RWF=   5207 Int=      0 D2E=      0 Chk=      6 Scr=      1
 Normal termination of Gaussian 16 at Thu Jun 13 04:20:02 2019.
