 Entering Gaussian System, Link 0=g16
 Initial command:
 /ichec/packages/gaussian/16b01/l1.exe "/localscratch/346541/Gau-39400.inp" -scrdir="/localscratch/346541/"
 Entering Link 1 = /ichec/packages/gaussian/16b01/l1.exe PID=     42418.
  
 Copyright (c) 1988-2017, Gaussian, Inc.  All Rights Reserved.
  
 This is part of the Gaussian(R) 16 program.  It is based on
 the Gaussian(R) 09 system (copyright 2009, Gaussian, Inc.),
 the Gaussian(R) 03 system (copyright 2003, Gaussian, Inc.),
 the Gaussian(R) 98 system (copyright 1998, Gaussian, Inc.),
 the Gaussian(R) 94 system (copyright 1995, Gaussian, Inc.),
 the Gaussian 92(TM) system (copyright 1992, Gaussian, Inc.),
 the Gaussian 90(TM) system (copyright 1990, Gaussian, Inc.),
 the Gaussian 88(TM) system (copyright 1988, Gaussian, Inc.),
 the Gaussian 86(TM) system (copyright 1986, Carnegie Mellon
 University), and the Gaussian 82(TM) system (copyright 1983,
 Carnegie Mellon University). Gaussian is a federally registered
 trademark of Gaussian, Inc.
  
 This software contains proprietary and confidential information,
 including trade secrets, belonging to Gaussian, Inc.
  
 This software is provided under written license and may be
 used, copied, transmitted, or stored only in accord with that
 written license.
  
 The following legend is applicable only to US Government
 contracts under FAR:
  
                    RESTRICTED RIGHTS LEGEND
  
 Use, reproduction and disclosure by the US Government is
 subject to restrictions as set forth in subparagraphs (a)
 and (c) of the Commercial Computer Software - Restricted
 Rights clause in FAR 52.227-19.
  
 Gaussian, Inc.
 340 Quinnipiac St., Bldg. 40, Wallingford CT 06492
  
  
 ---------------------------------------------------------------
 Warning -- This program may not be used in any manner that
 competes with the business of Gaussian, Inc. or will provide
 assistance to any competitor of Gaussian, Inc.  The licensee
 of this program is prohibited from giving any competitor of
 Gaussian, Inc. access to this program.  By using this program,
 the user acknowledges that Gaussian, Inc. is engaged in the
 business of creating and licensing software in the field of
 computational chemistry and represents and warrants to the
 licensee that it is not a competitor of Gaussian, Inc. and that
 it will not use this program in any manner prohibited above.
 ---------------------------------------------------------------
  

 Cite this work as:
 Gaussian 16, Revision B.01,
 M. J. Frisch, G. W. Trucks, H. B. Schlegel, G. E. Scuseria, 
 M. A. Robb, J. R. Cheeseman, G. Scalmani, V. Barone, 
 G. A. Petersson, H. Nakatsuji, X. Li, M. Caricato, A. V. Marenich, 
 J. Bloino, B. G. Janesko, R. Gomperts, B. Mennucci, H. P. Hratchian, 
 J. V. Ortiz, A. F. Izmaylov, J. L. Sonnenberg, D. Williams-Young, 
 F. Ding, F. Lipparini, F. Egidi, J. Goings, B. Peng, A. Petrone, 
 T. Henderson, D. Ranasinghe, V. G. Zakrzewski, J. Gao, N. Rega, 
 G. Zheng, W. Liang, M. Hada, M. Ehara, K. Toyota, R. Fukuda, 
 J. Hasegawa, M. Ishida, T. Nakajima, Y. Honda, O. Kitao, H. Nakai, 
 T. Vreven, K. Throssell, J. A. Montgomery, Jr., J. E. Peralta, 
 F. Ogliaro, M. J. Bearpark, J. J. Heyd, E. N. Brothers, K. N. Kudin, 
 V. N. Staroverov, T. A. Keith, R. Kobayashi, J. Normand, 
 K. Raghavachari, A. P. Rendell, J. C. Burant, S. S. Iyengar, 
 J. Tomasi, M. Cossi, J. M. Millam, M. Klene, C. Adamo, R. Cammi, 
 J. W. Ochterski, R. L. Martin, K. Morokuma, O. Farkas, 
 J. B. Foresman, and D. J. Fox, Gaussian, Inc., Wallingford CT, 2016.
 
 ******************************************
 Gaussian 16:  ES64L-G16RevB.01 20-Dec-2017
                10-Jun-2019 
 ******************************************
 %mem=80GB
 %nproc=40
 Will use up to   40 processors via shared memory.
 ----------------------------------------------------------------------
 # opt=(calcfc,ts,noeigentest,maxcyc=500) freq=noraman uB2PLYPD3/cc-pvt
 z
 ----------------------------------------------------------------------
 1/5=1,6=500,10=4,11=1,18=20,38=1/1,3;
 2/9=110,12=2,17=6,18=5,40=1/2;
 3/5=16,6=1,11=2,25=1,30=1,71=2,74=-60,116=2,140=1/1,2,3;
 4//1;
 5/5=2,38=5/2;
 8/6=3,8=1,10=1,19=11,30=-1/1;
 9/15=3,16=-3/6;
 11/6=1,8=1,15=11,17=12,24=-1,27=1,28=-2,29=300,32=6,42=3/1,2,10;
 10/6=2,21=1/2;
 8/6=4,8=1,10=1,19=11,30=-1/11,4;
 10/5=1,20=4/2;
 11/12=2,14=11,16=1,17=2,28=-2,42=3,76=2/2,10,12;
 6/7=2,8=2,9=2,10=2/1;
 7/10=1,12=2,25=1,44=2/1,2,3,16;
 1/5=1,6=500,10=4,11=1,18=20/3(2);
 2/9=110/2;
 99//99;
 2/9=110/2;
 3/5=16,6=1,11=2,25=1,30=1,71=1,74=-60,116=2/1,2,3;
 4/5=5,16=3,69=1/1;
 5/5=2,38=5/2;
 8/6=4,10=1/1;
 9/15=2,16=-3/6;
 10/5=1/2;
 7/12=2/1,2,3,16;
 1/5=1,6=500,11=1,18=20/3(-8);
 2/9=110/2;
 6/7=2,8=2,9=2,10=2/1;
 99/9=10/99;
 -------------------
 Title Card Required
 -------------------
 Symbolic Z-matrix:
 Charge =  0 Multiplicity = 2
 C                     2.1158    0.04441   1.14832 
 H                     1.77073   0.66972   1.97167 
 H                     2.2566   -0.9713    1.51756 
 C                     1.15418   0.07867  -0.01246 
 C                    -2.61445   0.55451   0.11201 
 H                    -1.97887   1.39335   0.40132 
 H                    -3.24511   0.83636  -0.72934 
 H                    -3.22962   0.24862   0.95811 
 O                    -1.83032  -0.53128  -0.34253 
 O                    -1.02628  -0.94741   0.6998 
 H                     0.04817  -0.42188   0.45356 
 H                     3.09533   0.42112   0.83193 
 C                     0.77039   1.46037  -0.47796 
 H                    -0.04702   1.41675  -1.19918 
 H                     0.47451   2.0976    0.35582 
 H                     1.62373   1.93673  -0.97425 
 C                     1.47419  -0.8784   -1.13263 
 H                     0.65439  -0.92229  -1.85011 
 H                     2.37367  -0.54883  -1.6649 
 H                     1.65561  -1.88379  -0.75406 
 
 Add virtual bond connecting atoms H11        and O10        Dist= 2.31D+00.

 GradGradGradGradGradGradGradGradGradGradGradGradGradGradGradGradGradGrad
 Berny optimization.
 Initialization pass.
                           ----------------------------
                           !    Initial Parameters    !
                           ! (Angstroms and Degrees)  !
 --------------------------                            --------------------------
 ! Name  Definition              Value          Derivative Info.                !
 --------------------------------------------------------------------------------
 ! R1    R(1,2)                  1.0899         calculate D2E/DX2 analytically  !
 ! R2    R(1,3)                  1.0899         calculate D2E/DX2 analytically  !
 ! R3    R(1,4)                  1.5077         calculate D2E/DX2 analytically  !
 ! R4    R(1,12)                 1.0961         calculate D2E/DX2 analytically  !
 ! R5    R(4,11)                 1.3004         calculate D2E/DX2 analytically  !
 ! R6    R(4,13)                 1.5077         calculate D2E/DX2 analytically  !
 ! R7    R(4,17)                 1.5077         calculate D2E/DX2 analytically  !
 ! R8    R(5,6)                  1.0915         calculate D2E/DX2 analytically  !
 ! R9    R(5,7)                  1.0886         calculate D2E/DX2 analytically  !
 ! R10   R(5,8)                  1.0899         calculate D2E/DX2 analytically  !
 ! R11   R(5,9)                  1.4144         calculate D2E/DX2 analytically  !
 ! R12   R(9,10)                 1.3806         calculate D2E/DX2 analytically  !
 ! R13   R(10,11)                1.2212         calculate D2E/DX2 analytically  !
 ! R14   R(13,14)                1.091          calculate D2E/DX2 analytically  !
 ! R15   R(13,15)                1.0903         calculate D2E/DX2 analytically  !
 ! R16   R(13,16)                1.0961         calculate D2E/DX2 analytically  !
 ! R17   R(17,18)                1.0903         calculate D2E/DX2 analytically  !
 ! R18   R(17,19)                1.0959         calculate D2E/DX2 analytically  !
 ! R19   R(17,20)                1.0895         calculate D2E/DX2 analytically  !
 ! A1    A(2,1,3)              108.6419         calculate D2E/DX2 analytically  !
 ! A2    A(2,1,4)              111.5071         calculate D2E/DX2 analytically  !
 ! A3    A(2,1,12)             107.6852         calculate D2E/DX2 analytically  !
 ! A4    A(3,1,4)              111.3708         calculate D2E/DX2 analytically  !
 ! A5    A(3,1,12)             107.6151         calculate D2E/DX2 analytically  !
 ! A6    A(4,1,12)             109.8714         calculate D2E/DX2 analytically  !
 ! A7    A(1,4,11)             104.9402         calculate D2E/DX2 analytically  !
 ! A8    A(1,4,13)             114.8902         calculate D2E/DX2 analytically  !
 ! A9    A(1,4,17)             114.9737         calculate D2E/DX2 analytically  !
 ! A10   A(11,4,13)            104.2942         calculate D2E/DX2 analytically  !
 ! A11   A(11,4,17)            101.6796         calculate D2E/DX2 analytically  !
 ! A12   A(13,4,17)            113.9774         calculate D2E/DX2 analytically  !
 ! A13   A(6,5,7)              110.074          calculate D2E/DX2 analytically  !
 ! A14   A(6,5,8)              109.7919         calculate D2E/DX2 analytically  !
 ! A15   A(6,5,9)              110.6308         calculate D2E/DX2 analytically  !
 ! A16   A(7,5,8)              110.2225         calculate D2E/DX2 analytically  !
 ! A17   A(7,5,9)              105.7576         calculate D2E/DX2 analytically  !
 ! A18   A(8,5,9)              110.3002         calculate D2E/DX2 analytically  !
 ! A19   A(5,9,10)             108.158          calculate D2E/DX2 analytically  !
 ! A20   A(9,10,11)            103.3239         calculate D2E/DX2 analytically  !
 ! A21   A(4,13,14)            110.9899         calculate D2E/DX2 analytically  !
 ! A22   A(4,13,15)            111.6282         calculate D2E/DX2 analytically  !
 ! A23   A(4,13,16)            109.8712         calculate D2E/DX2 analytically  !
 ! A24   A(14,13,15)           109.0001         calculate D2E/DX2 analytically  !
 ! A25   A(14,13,16)           107.5395         calculate D2E/DX2 analytically  !
 ! A26   A(15,13,16)           107.6692         calculate D2E/DX2 analytically  !
 ! A27   A(4,17,18)            110.7856         calculate D2E/DX2 analytically  !
 ! A28   A(4,17,19)            110.1311         calculate D2E/DX2 analytically  !
 ! A29   A(4,17,20)            111.2814         calculate D2E/DX2 analytically  !
 ! A30   A(18,17,19)           108.0374         calculate D2E/DX2 analytically  !
 ! A31   A(18,17,20)           108.4636         calculate D2E/DX2 analytically  !
 ! A32   A(19,17,20)           108.0353         calculate D2E/DX2 analytically  !
 ! A33   L(4,11,10,6,-1)       180.3363         calculate D2E/DX2 analytically  !
 ! A34   L(4,11,10,6,-2)       169.7807         calculate D2E/DX2 analytically  !
 ! D1    D(2,1,4,11)           -62.6016         calculate D2E/DX2 analytically  !
 ! D2    D(2,1,4,13)            51.3214         calculate D2E/DX2 analytically  !
 ! D3    D(2,1,4,17)          -173.4201         calculate D2E/DX2 analytically  !
 ! D4    D(3,1,4,11)            58.9414         calculate D2E/DX2 analytically  !
 ! D5    D(3,1,4,13)           172.8644         calculate D2E/DX2 analytically  !
 ! D6    D(3,1,4,17)           -51.8771         calculate D2E/DX2 analytically  !
 ! D7    D(12,1,4,11)          178.083          calculate D2E/DX2 analytically  !
 ! D8    D(12,1,4,13)          -67.994          calculate D2E/DX2 analytically  !
 ! D9    D(12,1,4,17)           67.2645         calculate D2E/DX2 analytically  !
 ! D10   D(1,4,10,9)           166.1129         calculate D2E/DX2 analytically  !
 ! D11   D(13,4,10,9)           43.1402         calculate D2E/DX2 analytically  !
 ! D12   D(17,4,10,9)          -74.0248         calculate D2E/DX2 analytically  !
 ! D13   D(1,4,13,14)         -170.4325         calculate D2E/DX2 analytically  !
 ! D14   D(1,4,13,15)          -48.6134         calculate D2E/DX2 analytically  !
 ! D15   D(1,4,13,16)           70.7591         calculate D2E/DX2 analytically  !
 ! D16   D(11,4,13,14)         -56.1331         calculate D2E/DX2 analytically  !
 ! D17   D(11,4,13,15)          65.686          calculate D2E/DX2 analytically  !
 ! D18   D(11,4,13,16)        -174.9415         calculate D2E/DX2 analytically  !
 ! D19   D(17,4,13,14)          53.863          calculate D2E/DX2 analytically  !
 ! D20   D(17,4,13,15)         175.6821         calculate D2E/DX2 analytically  !
 ! D21   D(17,4,13,16)         -64.9454         calculate D2E/DX2 analytically  !
 ! D22   D(1,4,17,18)          170.3154         calculate D2E/DX2 analytically  !
 ! D23   D(1,4,17,19)          -70.2202         calculate D2E/DX2 analytically  !
 ! D24   D(1,4,17,20)           49.559          calculate D2E/DX2 analytically  !
 ! D25   D(11,4,17,18)          57.5664         calculate D2E/DX2 analytically  !
 ! D26   D(11,4,17,19)         177.0309         calculate D2E/DX2 analytically  !
 ! D27   D(11,4,17,20)         -63.1899         calculate D2E/DX2 analytically  !
 ! D28   D(13,4,17,18)         -54.018          calculate D2E/DX2 analytically  !
 ! D29   D(13,4,17,19)          65.4465         calculate D2E/DX2 analytically  !
 ! D30   D(13,4,17,20)        -174.7744         calculate D2E/DX2 analytically  !
 ! D31   D(6,5,9,10)            62.0059         calculate D2E/DX2 analytically  !
 ! D32   D(7,5,9,10)          -178.8301         calculate D2E/DX2 analytically  !
 ! D33   D(8,5,9,10)           -59.6649         calculate D2E/DX2 analytically  !
 ! D34   D(5,9,10,11)          -99.3613         calculate D2E/DX2 analytically  !
 --------------------------------------------------------------------------------
 Trust Radius=3.00D-01 FncErr=1.00D-07 GrdErr=1.00D-07 EigMax=2.50D+02 EigMin=1.00D-04
 Number of steps in this run=    120 maximum allowed number of steps=    120.
 Search for a saddle point of order  1.
 GradGradGradGradGradGradGradGradGradGradGradGradGradGradGradGradGradGrad

                          Input orientation:                          
 ---------------------------------------------------------------------
 Center     Atomic      Atomic             Coordinates (Angstroms)
 Number     Number       Type             X           Y           Z
 ---------------------------------------------------------------------
      1          6           0        2.115796    0.044410    1.148324
      2          1           0        1.770734    0.669722    1.971666
      3          1           0        2.256605   -0.971297    1.517560
      4          6           0        1.154181    0.078669   -0.012458
      5          6           0       -2.614451    0.554514    0.112012
      6          1           0       -1.978869    1.393350    0.401320
      7          1           0       -3.245114    0.836364   -0.729341
      8          1           0       -3.229616    0.248616    0.958109
      9          8           0       -1.830320   -0.531282   -0.342526
     10          8           0       -1.026280   -0.947413    0.699799
     11          1           0        0.048168   -0.421876    0.453555
     12          1           0        3.095334    0.421121    0.831928
     13          6           0        0.770394    1.460367   -0.477962
     14          1           0       -0.047015    1.416754   -1.199181
     15          1           0        0.474506    2.097601    0.355818
     16          1           0        1.623729    1.936725   -0.974248
     17          6           0        1.474192   -0.878395   -1.132634
     18          1           0        0.654387   -0.922293   -1.850107
     19          1           0        2.373667   -0.548834   -1.664901
     20          1           0        1.655610   -1.883785   -0.754055
 ---------------------------------------------------------------------
                    Distance matrix (angstroms):
                    1          2          3          4          5
     1  C    0.000000
     2  H    1.089943   0.000000
     3  H    1.089873   1.770657   0.000000
     4  C    1.507744   2.160146   2.158407   0.000000
     5  C    4.869228   4.764602   5.294417   3.800593   0.000000
     6  H    4.375378   4.129061   4.977629   3.422806   1.091471
     7  H    5.735170   5.699293   6.211692   4.521263   1.088600
     8  H    5.352692   5.119387   5.647990   4.493168   1.089900
     9  O    4.257451   4.445839   4.511817   3.064022   1.414362
    10  O    3.325286   3.472184   3.383288   2.512880   2.263529
    11  H    2.230518   2.542338   2.512203   1.300376   2.856489
    12  H    1.096135   1.765041   1.764195   2.144373   5.756537
    13  C    2.541623   2.761608   3.479069   1.507672   3.553282
    14  H    3.474458   3.730488   4.288372   2.154450   3.009055
    15  H    2.745449   2.515951   3.734121   2.161868   3.461534
    16  H    2.885879   3.210189   3.881524   2.144269   4.588315
    17  C    2.542832   3.481563   2.764838   1.507704   4.507702
    18  H    3.472869   4.287971   3.729703   2.151435   4.088542
    19  H    2.886637   3.882400   3.212512   2.147434   5.408892
    20  H    2.747499   3.736737   2.520727   2.156994   4.992874
                    6          7          8          9         10
     6  H    0.000000
     7  H    1.786618   0.000000
     8  H    1.784600   1.786946   0.000000
     9  O    2.068715   2.005424   2.063473   0.000000
    10  O    2.544737   3.185518   2.520297   1.380611   0.000000
    11  H    2.721517   3.718618   3.383490   2.043143   1.221173
    12  H    5.184418   6.543032   6.328560   5.152522   4.344887
    13  C    2.887226   4.071471   4.419357   3.278524   3.226850
    14  H    2.508827   3.284119   4.018382   2.776487   3.186592
    15  H    2.552859   4.074784   4.183542   3.565240   3.412154
    16  H    3.894375   4.997640   5.489870   4.291921   4.259487
    17  C    4.408795   5.037350   5.269456   3.415342   3.100796
    18  H    4.167153   4.422115   4.933820   2.932483   3.054062
    19  H    5.194797   5.862145   6.238020   4.407095   4.160566
    20  H    5.028314   5.605080   5.598578   3.761692   3.191084
                   11         12         13         14         15
    11  H    0.000000
    12  H    3.184184   0.000000
    13  C    2.220850   2.863772   0.000000
    14  H    2.474097   3.871827   1.090970   0.000000
    15  H    2.557163   3.147381   1.090324   1.775826   0.000000
    16  H    3.175533   2.779379   1.096083   1.764185   1.765126
    17  C    2.181272   2.859431   2.528584   2.754307   3.474394
    18  H    2.434087   3.867337   2.751964   2.527214   3.744092
    19  H    3.148320   2.774125   2.831289   3.152798   3.833241
    20  H    2.485834   3.146544   3.470330   3.740405   4.298635
                   16         17         18         19         20
    16  H    0.000000
    17  C    2.823535   0.000000
    18  H    3.143364   1.090309   0.000000
    19  H    2.686524   1.095890   1.769095   0.000000
    20  H    3.826983   1.089515   1.768684   1.768429   0.000000
 Stoichiometry    C5H13O2(2)
 Framework group  C1[X(C5H13O2)]
 Deg. of freedom    54
 Full point group                 C1      NOp   1
 Largest Abelian subgroup         C1      NOp   1
 Largest concise Abelian subgroup C1      NOp   1
                         Standard orientation:                         
 ---------------------------------------------------------------------
 Center     Atomic      Atomic             Coordinates (Angstroms)
 Number     Number       Type             X           Y           Z
 ---------------------------------------------------------------------
      1          6           0        2.115796    0.044410    1.148324
      2          1           0        1.770734    0.669722    1.971666
      3          1           0        2.256605   -0.971297    1.517560
      4          6           0        1.154181    0.078669   -0.012458
      5          6           0       -2.614451    0.554514    0.112012
      6          1           0       -1.978869    1.393350    0.401320
      7          1           0       -3.245114    0.836364   -0.729341
      8          1           0       -3.229616    0.248616    0.958109
      9          8           0       -1.830320   -0.531282   -0.342526
     10          8           0       -1.026280   -0.947413    0.699799
     11          1           0        0.048168   -0.421876    0.453555
     12          1           0        3.095334    0.421121    0.831928
     13          6           0        0.770394    1.460367   -0.477962
     14          1           0       -0.047015    1.416754   -1.199181
     15          1           0        0.474506    2.097601    0.355818
     16          1           0        1.623729    1.936725   -0.974248
     17          6           0        1.474192   -0.878395   -1.132634
     18          1           0        0.654387   -0.922293   -1.850107
     19          1           0        2.373667   -0.548834   -1.664901
     20          1           0        1.655610   -1.883785   -0.754055
 ---------------------------------------------------------------------
 Rotational constants (GHZ):           3.6478103           1.3590320           1.3066068
 Standard basis: CC-pVTZ (5D, 7F)
 There are   440 symmetry adapted cartesian basis functions of A   symmetry.
 There are   392 symmetry adapted basis functions of A   symmetry.
   392 basis functions,   585 primitive gaussians,   440 cartesian basis functions
    30 alpha electrons       29 beta electrons
       nuclear repulsion energy       336.5475039386 Hartrees.
 NAtoms=   20 NActive=   20 NUniq=   20 SFac= 1.00D+00 NAtFMM=   60 NAOKFM=F Big=F
 Integral buffers will be    131072 words long.
 Raffenetti 2 integral format.
 Two-electron integral symmetry is turned on.
 Nuclear repulsion after empirical dispersion term =      336.5363152226 Hartrees.
 One-electron integrals computed using PRISM.
 NBasis=   392 RedAO= T EigKep=  5.90D-04  NBF=   392
 NBsUse=   392 1.00D-06 EigRej= -1.00D+00 NBFU=   392
 ExpMin= 1.03D-01 ExpMax= 1.53D+04 ExpMxC= 5.22D+02 IAcc=3 IRadAn=         5 AccDes= 0.00D+00
 Harris functional with IExCor=  419 and IRadAn=       5 diagonalized for initial guess.
 HarFok:  IExCor=  419 AccDes= 0.00D+00 IRadAn=         5 IDoV= 1 UseB2=F ITyADJ=14
 ICtDFT=  3500011 ScaDFX=  1.000000  1.000000  1.000000  1.000000
 FoFCou: FMM=F IPFlag=           0 FMFlag=      100000 FMFlg1=           0
         NFxFlg=           0 DoJE=T BraDBF=F KetDBF=T FulRan=T
         wScrn=  0.000000 ICntrl=       500 IOpCl=  0 I1Cent=   200000004 NGrid=           0
         NMat0=    1 NMatS0=      1 NMatT0=    0 NMatD0=    1 NMtDS0=    0 NMtDT0=    0
 Petite list used in FoFCou.
 Initial guess <Sx>= 0.0000 <Sy>= 0.0000 <Sz>= 0.5000 <S**2>= 0.7500 S= 0.5000
 Requested convergence on RMS density matrix=1.00D-08 within 128 cycles.
 Requested convergence on MAX density matrix=1.00D-06.
 Requested convergence on             energy=1.00D-06.
 No special actions if energy rises.
 Integral accuracy reduced to 1.0D-05 until final iterations.
 Initial convergence to 1.0D-05 achieved.  Increase integral accuracy.
 SCF Done:  E(UB2PLYPD3) =  -348.033230396     A.U. after   19 cycles
            NFock= 19  Conv=0.65D-08     -V/T= 2.0042
 <Sx>= 0.0000 <Sy>= 0.0000 <Sz>= 0.5000 <S**2>= 0.7683 S= 0.5091
 <L.S>=  0.00000000000    
 Annihilation of the first spin contaminant:
 S**2 before annihilation     0.7683,   after     0.7501
 DoSCS=T DFT=T ScalE2(SS,OS)=  0.270000  0.270000
 ExpMin= 1.03D-01 ExpMax= 1.53D+04 ExpMxC= 5.22D+02 IAcc=3 IRadAn=         5 AccDes= 0.00D+00
 HarFok:  IExCor=  205 AccDes= 0.00D+00 IRadAn=         5 IDoV=-2 UseB2=F ITyADJ=14
 ICtDFT= 12500011 ScaDFX=  1.000000  1.000000  1.000000  1.000000
 Range of M.O.s used for correlation:     8   392
 NBasis=   392 NAE=    30 NBE=    29 NFC=     7 NFV=     0
 NROrb=    385 NOA=    23 NOB=    22 NVA=   362 NVB=   363

 **** Warning!!: The largest alpha MO coefficient is  0.12022049D+02


 **** Warning!!: The largest beta MO coefficient is  0.12021957D+02

 DoSCS=T DFT=T ScalE2(SS,OS)=  0.270000  0.270000
 Disk-based method using ON**2 memory for 23 occupieds at a time.
 Permanent disk used for amplitudes=   169421973 words.
 Estimated scratch disk usage=  3379654576 words.
 Actual    scratch disk usage=  3268123568 words.
 JobTyp=2 Pass  1:  I=   8 to  30 NPSUse= 40 ParTrn=T ParDer=T DoDerP=T.
 (rs|ai) integrals will be sorted in core.
 Actual    scratch disk usage=  3268123568 words.
 JobTyp=3 Pass  1:  I=   8 to  29 NPSUse= 40 ParTrn=T ParDer=T DoDerP=T.
 (rs|ai) integrals will be sorted in core.
 Spin components of T(2) and E(2):
     alpha-alpha T2 =       0.7417884677D-01 E2=     -0.5389220075D-01
     alpha-beta  T2 =       0.4573024628D+00 E2=     -0.3433667676D+00
     beta-beta   T2 =       0.8150829625D-01 E2=     -0.5335265550D-01
 (S**2,0)=  0.76827D+00           (S**2,1)=  0.74251D+00
 Scaling Projection term by:   0.270000
 E(PUHF)=      -0.34803950977D+03        E(PMP2)=      -0.34848434773D+03
 E2(B2PLYPD3) =    -0.4506116238D+00 E(B2PLYPD3) =    -0.34848384202000D+03
 G2DrvN: will do    21 centers at a time, making    1 passes.
 Calling FoFCou, ICntrl=  3107 FMM=F I1Cent=   0 AccDes= 0.00D+00.
 End of G2Drv F.D. properties file   721 does not exist.
 End of G2Drv F.D. properties file   722 does not exist.
 End of G2Drv F.D. properties file   788 does not exist.
          IDoAtm=11111111111111111111
          Differentiating once with respect to electric field.
                with respect to dipole field.
          Differentiating once with respect to nuclear coordinates.
 CalDSu exits because no D1Ps are significant.
          There are    63 degrees of freedom in the 1st order CPHF.  IDoFFX=6 NUNeed=    63.
     60 vectors produced by pass  0 Test12= 3.39D-14 1.59D-09 XBig12= 9.52D+01 5.81D+00.
 AX will form    60 AO Fock derivatives at one time.
     60 vectors produced by pass  1 Test12= 3.39D-14 1.59D-09 XBig12= 6.68D+00 3.30D-01.
     60 vectors produced by pass  2 Test12= 3.39D-14 1.59D-09 XBig12= 3.87D-01 1.30D-01.
     60 vectors produced by pass  3 Test12= 3.39D-14 1.59D-09 XBig12= 5.87D-03 7.13D-03.
     60 vectors produced by pass  4 Test12= 3.39D-14 1.59D-09 XBig12= 5.95D-05 7.50D-04.
     60 vectors produced by pass  5 Test12= 3.39D-14 1.59D-09 XBig12= 8.25D-07 8.91D-05.
     60 vectors produced by pass  6 Test12= 3.39D-14 1.59D-09 XBig12= 6.33D-09 8.03D-06.
     24 vectors produced by pass  7 Test12= 3.39D-14 1.59D-09 XBig12= 4.18D-11 4.15D-07.
      3 vectors produced by pass  8 Test12= 3.39D-14 1.59D-09 XBig12= 2.88D-13 4.81D-08.
      3 vectors produced by pass  9 Test12= 3.39D-14 1.59D-09 XBig12= 2.22D-15 3.14D-09.
 InvSVY:  IOpt=1 It=  1 EMax= 5.33D-15
 Solved reduced A of dimension   450 with    63 vectors.
 End of Minotr F.D. properties file   721 does not exist.
 End of Minotr F.D. properties file   722 does not exist.
 End of Minotr F.D. properties file   788 does not exist.
 MDV= 10737418240.
 DoSCS=T DFT=T ScalE2(SS,OS)=  0.270000  0.270000
 Form MO integral derivatives with frozen-active canonical formalism.
 Discarding MO integrals.
 Reordered first order wavefunction length =    681858357
 In DefCFB: NBatch=  1 ICI= 30 ICA=363 LFMax= 73
            Large arrays: LIAPS= 14755319040 LIARS=  2347884000 words.
 In DefCFB: NBatch=  1 ICI= 30 ICA=363 LFMax= 73
            Large arrays: LIAPS= 14755319040 LIARS=  2347884000 words.
 Semi-Direct transformation.
 ModeAB=           4 MOrb=            30 LenV=   10732949969
 LASXX=    860785125 LTotXX=   860785125 LenRXX=  1733127225
 LTotAB=   872342100 MaxLAS=  1048780320 LenRXY=           0
 NonZer=  2593912350 LenScr=  3906126848 LnRSAI=  1048780320
 LnScr1=  1579340800 LExtra=           0 Total=   8267375193
 MaxDsk=          -1 SrtSym=           T ITran=            4
 JobTyp=1 Pass  1:  I=   1 to  30.
 (rs|ai) integrals will be sorted in core.
 ModeAB=           4 MOrb=            29 LenV=   10732949969
 LASXX=    833505211 LTotXX=   833505211 LenRXX=  1553741497
 LTotAB=   720236286 MaxLAS=  1013820976 LenRXY=           0
 NonZer=  2387246708 LenScr=  3594912768 LnRSAI=  1013820976
 LnScr1=  1526695936 LExtra=           0 Total=   7689171177
 MaxDsk=          -1 SrtSym=           T ITran=            4
 JobTyp=2 Pass  1:  I=   1 to  29.
 (rs|ai) integrals will be sorted in core.
 SymMOI:  orbitals are not symmetric.
 DoSCS=T DFT=T ScalE2(SS,OS)=  0.270000  0.270000
 Spin components of T(2) and E(2):
     alpha-alpha T2 =       0.7417884677D-01 E2=     -0.5389220075D-01
     alpha-beta  T2 =       0.4573024628D+00 E2=     -0.3433667676D+00
     beta-beta   T2 =       0.8150829625D-01 E2=     -0.5335265550D-01
 E2(B2PLYPD3) =    -0.4506116238D+00 E(B2PLYPD3) =    -0.34848384202000D+03
 (S**2,0)=  0.76827D+00           (S**2,1)=  0.74251D+00
 Scaling Projection term by:   0.270000
 E(PUHF)=      -0.34803950977D+03        E(PMP2)=      -0.34848434773D+03
          IDoAtm=11111111111111111111
          Differentiating once with respect to electric field.
                with respect to dipole field.
          Differentiating once with respect to nuclear coordinates.
          There are     1 degrees of freedom in the 1st order CPHF.  IDoFFX=0 NUNeed=     1.
 LinEq1:  Iter=  0 NonCon=     1 RMS=7.62D-04 Max=5.17D-02 NDo=     1
 AX will form     1 AO Fock derivatives at one time.
 LinEq1:  Iter=  1 NonCon=     1 RMS=2.56D-04 Max=8.95D-03 NDo=     1
 LinEq1:  Iter=  2 NonCon=     1 RMS=1.52D-04 Max=8.12D-03 NDo=     1
 LinEq1:  Iter=  3 NonCon=     1 RMS=6.35D-05 Max=1.28D-03 NDo=     1
 LinEq1:  Iter=  4 NonCon=     1 RMS=3.42D-05 Max=1.59D-03 NDo=     1
 LinEq1:  Iter=  5 NonCon=     1 RMS=2.37D-05 Max=9.49D-04 NDo=     1
 LinEq1:  Iter=  6 NonCon=     1 RMS=1.53D-05 Max=1.01D-03 NDo=     1
 LinEq1:  Iter=  7 NonCon=     1 RMS=4.88D-06 Max=1.73D-04 NDo=     1
 LinEq1:  Iter=  8 NonCon=     1 RMS=2.12D-06 Max=6.91D-05 NDo=     1
 LinEq1:  Iter=  9 NonCon=     1 RMS=9.53D-07 Max=3.98D-05 NDo=     1
 LinEq1:  Iter= 10 NonCon=     1 RMS=3.78D-07 Max=1.71D-05 NDo=     1
 LinEq1:  Iter= 11 NonCon=     1 RMS=1.66D-07 Max=5.97D-06 NDo=     1
 LinEq1:  Iter= 12 NonCon=     1 RMS=5.70D-08 Max=1.84D-06 NDo=     1
 LinEq1:  Iter= 13 NonCon=     1 RMS=1.84D-08 Max=3.55D-07 NDo=     1
 LinEq1:  Iter= 14 NonCon=     1 RMS=8.18D-09 Max=1.55D-07 NDo=     1
 LinEq1:  Iter= 15 NonCon=     1 RMS=3.38D-09 Max=7.07D-08 NDo=     1
 LinEq1:  Iter= 16 NonCon=     1 RMS=1.18D-09 Max=2.02D-08 NDo=     1
 LinEq1:  Iter= 17 NonCon=     1 RMS=3.76D-10 Max=6.16D-09 NDo=     1
 LinEq1:  Iter= 18 NonCon=     1 RMS=1.64D-10 Max=3.39D-09 NDo=     1
 LinEq1:  Iter= 19 NonCon=     1 RMS=6.69D-11 Max=1.51D-09 NDo=     1
 LinEq1:  Iter= 20 NonCon=     0 RMS=2.11D-11 Max=5.27D-10 NDo=     1
 Linear equations converged to 1.000D-10 1.000D-09 after    20 iterations.
 End of Minotr F.D. properties file   721 does not exist.
 End of Minotr F.D. properties file   722 does not exist.
 End of Minotr F.D. properties file   788 does not exist.
 Symmetrizing basis deriv contribution to polar:
 IMax=3 JMax=2 DiffMx= 0.00D+00
 G2DrvN: will do    21 centers at a time, making    1 passes.
 Calling FoFCou, ICntrl=  3107 FMM=F I1Cent=   0 AccDes= 0.00D+00.
 End of G2Drv F.D. properties file   721 does not exist.
 End of G2Drv F.D. properties file   722 does not exist.
 End of G2Drv F.D. properties file   788 does not exist.
 DoSCS=T DFT=T ScalE2(SS,OS)=  0.270000  0.270000
 R2 and R3 integrals will be kept in memory, NReq=  9455860260.
 DD1Dir will call FoFMem   1 times, MxPair=      2582
 NAB=   870 NAA=   435 NBB=   406.
 Discarding MO integrals.

 **********************************************************************

            Population analysis using the SCF Density.

 **********************************************************************

 Orbital symmetries:
 Alpha Orbitals:
       Occupied  (A) (A) (A) (A) (A) (A) (A) (A) (A) (A) (A) (A)
                 (A) (A) (A) (A) (A) (A) (A) (A) (A) (A) (A) (A)
                 (A) (A) (A) (A) (A) (A)
       Virtual   (A) (A) (A) (A) (A) (A) (A) (A) (A) (A) (A) (A)
                 (A) (A) (A) (A) (A) (A) (A) (A) (A) (A) (A) (A)
                 (A) (A) (A) (A) (A) (A) (A) (A) (A) (A) (A) (A)
                 (A) (A) (A) (A) (A) (A) (A) (A) (A) (A) (A) (A)
                 (A) (A) (A) (A) (A) (A) (A) (A) (A) (A) (A) (A)
                 (A) (A) (A) (A) (A) (A) (A) (A) (A) (A) (A) (A)
                 (A) (A) (A) (A) (A) (A) (A) (A) (A) (A) (A) (A)
                 (A) (A) (A) (A) (A) (A) (A) (A) (A) (A) (A) (A)
                 (A) (A) (A) (A) (A) (A) (A) (A) (A) (A) (A) (A)
                 (A) (A) (A) (A) (A) (A) (A) (A) (A) (A) (A) (A)
                 (A) (A) (A) (A) (A) (A) (A) (A) (A) (A) (A) (A)
                 (A) (A) (A) (A) (A) (A) (A) (A) (A) (A) (A) (A)
                 (A) (A) (A) (A) (A) (A) (A) (A) (A) (A) (A) (A)
                 (A) (A) (A) (A) (A) (A) (A) (A) (A) (A) (A) (A)
                 (A) (A) (A) (A) (A) (A) (A) (A) (A) (A) (A) (A)
                 (A) (A) (A) (A) (A) (A) (A) (A) (A) (A) (A) (A)
                 (A) (A) (A) (A) (A) (A) (A) (A) (A) (A) (A) (A)
                 (A) (A) (A) (A) (A) (A) (A) (A) (A) (A) (A) (A)
                 (A) (A) (A) (A) (A) (A) (A) (A) (A) (A) (A) (A)
                 (A) (A) (A) (A) (A) (A) (A) (A) (A) (A) (A) (A)
                 (A) (A) (A) (A) (A) (A) (A) (A) (A) (A) (A) (A)
                 (A) (A) (A) (A) (A) (A) (A) (A) (A) (A) (A) (A)
                 (A) (A) (A) (A) (A) (A) (A) (A) (A) (A) (A) (A)
                 (A) (A) (A) (A) (A) (A) (A) (A) (A) (A) (A) (A)
                 (A) (A) (A) (A) (A) (A) (A) (A) (A) (A) (A) (A)
                 (A) (A) (A) (A) (A) (A) (A) (A) (A) (A) (A) (A)
                 (A) (A) (A) (A) (A) (A) (A) (A) (A) (A) (A) (A)
                 (A) (A) (A) (A) (A) (A) (A) (A) (A) (A) (A) (A)
                 (A) (A) (A) (A) (A) (A) (A) (A) (A) (A) (A) (A)
                 (A) (A) (A) (A) (A) (A) (A) (A) (A) (A) (A) (A)
                 (A) (A)
 Beta  Orbitals:
       Occupied  (A) (A) (A) (A) (A) (A) (A) (A) (A) (A) (A) (A)
                 (A) (A) (A) (A) (A) (A) (A) (A) (A) (A) (A) (A)
                 (A) (A) (A) (A) (A)
       Virtual   (A) (A) (A) (A) (A) (A) (A) (A) (A) (A) (A) (A)
                 (A) (A) (A) (A) (A) (A) (A) (A) (A) (A) (A) (A)
                 (A) (A) (A) (A) (A) (A) (A) (A) (A) (A) (A) (A)
                 (A) (A) (A) (A) (A) (A) (A) (A) (A) (A) (A) (A)
                 (A) (A) (A) (A) (A) (A) (A) (A) (A) (A) (A) (A)
                 (A) (A) (A) (A) (A) (A) (A) (A) (A) (A) (A) (A)
                 (A) (A) (A) (A) (A) (A) (A) (A) (A) (A) (A) (A)
                 (A) (A) (A) (A) (A) (A) (A) (A) (A) (A) (A) (A)
                 (A) (A) (A) (A) (A) (A) (A) (A) (A) (A) (A) (A)
                 (A) (A) (A) (A) (A) (A) (A) (A) (A) (A) (A) (A)
                 (A) (A) (A) (A) (A) (A) (A) (A) (A) (A) (A) (A)
                 (A) (A) (A) (A) (A) (A) (A) (A) (A) (A) (A) (A)
                 (A) (A) (A) (A) (A) (A) (A) (A) (A) (A) (A) (A)
                 (A) (A) (A) (A) (A) (A) (A) (A) (A) (A) (A) (A)
                 (A) (A) (A) (A) (A) (A) (A) (A) (A) (A) (A) (A)
                 (A) (A) (A) (A) (A) (A) (A) (A) (A) (A) (A) (A)
                 (A) (A) (A) (A) (A) (A) (A) (A) (A) (A) (A) (A)
                 (A) (A) (A) (A) (A) (A) (A) (A) (A) (A) (A) (A)
                 (A) (A) (A) (A) (A) (A) (A) (A) (A) (A) (A) (A)
                 (A) (A) (A) (A) (A) (A) (A) (A) (A) (A) (A) (A)
                 (A) (A) (A) (A) (A) (A) (A) (A) (A) (A) (A) (A)
                 (A) (A) (A) (A) (A) (A) (A) (A) (A) (A) (A) (A)
                 (A) (A) (A) (A) (A) (A) (A) (A) (A) (A) (A) (A)
                 (A) (A) (A) (A) (A) (A) (A) (A) (A) (A) (A) (A)
                 (A) (A) (A) (A) (A) (A) (A) (A) (A) (A) (A) (A)
                 (A) (A) (A) (A) (A) (A) (A) (A) (A) (A) (A) (A)
                 (A) (A) (A) (A) (A) (A) (A) (A) (A) (A) (A) (A)
                 (A) (A) (A) (A) (A) (A) (A) (A) (A) (A) (A) (A)
                 (A) (A) (A) (A) (A) (A) (A) (A) (A) (A) (A) (A)
                 (A) (A) (A) (A) (A) (A) (A) (A) (A) (A) (A) (A)
                 (A) (A) (A)
 The electronic state is 2-A.
 Alpha  occ. eigenvalues --  -19.78620 -19.78271 -10.65852 -10.63899 -10.60935
 Alpha  occ. eigenvalues --  -10.60908 -10.60354  -1.28708  -1.01480  -0.93930
 Alpha  occ. eigenvalues --   -0.80255  -0.79869  -0.77430  -0.66445  -0.60021
 Alpha  occ. eigenvalues --   -0.56140  -0.55010  -0.53029  -0.51502  -0.51362
 Alpha  occ. eigenvalues --   -0.48361  -0.46065  -0.45636  -0.44143  -0.43668
 Alpha  occ. eigenvalues --   -0.40622  -0.40543  -0.36681  -0.35516  -0.28407
 Alpha virt. eigenvalues --    0.07165   0.09736   0.11552   0.12217   0.13281
 Alpha virt. eigenvalues --    0.13707   0.14319   0.15020   0.16960   0.17248
 Alpha virt. eigenvalues --    0.18425   0.19037   0.19423   0.20701   0.21612
 Alpha virt. eigenvalues --    0.24245   0.24478   0.26811   0.29741   0.31465
 Alpha virt. eigenvalues --    0.32651   0.34695   0.36773   0.37126   0.38357
 Alpha virt. eigenvalues --    0.40595   0.41781   0.44678   0.45076   0.46002
 Alpha virt. eigenvalues --    0.49212   0.49575   0.50138   0.51095   0.51302
 Alpha virt. eigenvalues --    0.52273   0.52835   0.53242   0.54393   0.54903
 Alpha virt. eigenvalues --    0.55464   0.56212   0.56674   0.57529   0.59174
 Alpha virt. eigenvalues --    0.59364   0.60163   0.64210   0.65619   0.66560
 Alpha virt. eigenvalues --    0.69445   0.72683   0.74983   0.75943   0.78455
 Alpha virt. eigenvalues --    0.80128   0.81159   0.82954   0.85018   0.86590
 Alpha virt. eigenvalues --    0.89196   0.90794   0.91484   0.94602   0.95723
 Alpha virt. eigenvalues --    0.96118   0.96963   0.97737   1.00541   1.02790
 Alpha virt. eigenvalues --    1.03459   1.04716   1.05204   1.05591   1.08283
 Alpha virt. eigenvalues --    1.09753   1.11181   1.13118   1.15287   1.16711
 Alpha virt. eigenvalues --    1.17186   1.18152   1.19445   1.19575   1.20214
 Alpha virt. eigenvalues --    1.22966   1.24441   1.25229   1.29099   1.29836
 Alpha virt. eigenvalues --    1.30620   1.31709   1.33873   1.34812   1.35582
 Alpha virt. eigenvalues --    1.36398   1.37780   1.38215   1.38809   1.38979
 Alpha virt. eigenvalues --    1.40514   1.42338   1.42684   1.43692   1.45038
 Alpha virt. eigenvalues --    1.45757   1.47643   1.48691   1.50458   1.55583
 Alpha virt. eigenvalues --    1.56404   1.59227   1.59990   1.61678   1.63095
 Alpha virt. eigenvalues --    1.63477   1.64880   1.65652   1.69276   1.71792
 Alpha virt. eigenvalues --    1.78406   1.80071   1.81608   1.84020   1.93426
 Alpha virt. eigenvalues --    1.93669   2.03799   2.04998   2.15618   2.22098
 Alpha virt. eigenvalues --    2.24341   2.30153   2.32482   2.36053   2.38333
 Alpha virt. eigenvalues --    2.40418   2.42714   2.45598   2.46587   2.49574
 Alpha virt. eigenvalues --    2.51035   2.52781   2.55428   2.57454   2.61275
 Alpha virt. eigenvalues --    2.65654   2.69350   2.70611   2.71311   2.71694
 Alpha virt. eigenvalues --    2.72712   2.74190   2.75050   2.76768   2.78143
 Alpha virt. eigenvalues --    2.87567   2.88496   2.89299   2.91232   2.91636
 Alpha virt. eigenvalues --    2.92365   2.93242   2.94207   2.94494   2.94880
 Alpha virt. eigenvalues --    2.96202   2.98795   3.02179   3.04233   3.04981
 Alpha virt. eigenvalues --    3.06064   3.08760   3.09047   3.10550   3.11090
 Alpha virt. eigenvalues --    3.14252   3.15360   3.15927   3.16967   3.17581
 Alpha virt. eigenvalues --    3.17605   3.17801   3.19624   3.20700   3.21427
 Alpha virt. eigenvalues --    3.22323   3.22400   3.24988   3.25709   3.26324
 Alpha virt. eigenvalues --    3.29552   3.31308   3.32356   3.41182   3.42547
 Alpha virt. eigenvalues --    3.42880   3.43576   3.45640   3.47293   3.47907
 Alpha virt. eigenvalues --    3.48398   3.48745   3.50151   3.51139   3.51964
 Alpha virt. eigenvalues --    3.53534   3.55633   3.57164   3.57436   3.57765
 Alpha virt. eigenvalues --    3.59705   3.60023   3.61075   3.61506   3.62560
 Alpha virt. eigenvalues --    3.64024   3.67118   3.71660   3.72770   3.73368
 Alpha virt. eigenvalues --    3.74704   3.80417   3.83031   3.83081   3.84533
 Alpha virt. eigenvalues --    3.88315   3.88781   3.89922   3.90959   3.92049
 Alpha virt. eigenvalues --    3.92853   3.94678   3.96522   3.98180   3.98377
 Alpha virt. eigenvalues --    3.99010   4.01233   4.02287   4.05604   4.07339
 Alpha virt. eigenvalues --    4.08618   4.09247   4.09961   4.10819   4.11543
 Alpha virt. eigenvalues --    4.14171   4.17329   4.17873   4.19845   4.20571
 Alpha virt. eigenvalues --    4.21502   4.23512   4.26108   4.26426   4.28426
 Alpha virt. eigenvalues --    4.30801   4.31982   4.32220   4.33049   4.34268
 Alpha virt. eigenvalues --    4.36005   4.37260   4.38017   4.38634   4.41617
 Alpha virt. eigenvalues --    4.44718   4.46092   4.47543   4.48369   4.51068
 Alpha virt. eigenvalues --    4.53070   4.54638   4.57609   4.58515   4.62106
 Alpha virt. eigenvalues --    4.63819   4.66719   4.69073   4.70551   4.72631
 Alpha virt. eigenvalues --    4.74984   4.81545   4.83388   4.84531   4.89437
 Alpha virt. eigenvalues --    4.93589   4.95748   4.96094   4.96750   4.98251
 Alpha virt. eigenvalues --    5.00304   5.01577   5.03214   5.04748   5.07556
 Alpha virt. eigenvalues --    5.12549   5.13193   5.17432   5.23837   5.24406
 Alpha virt. eigenvalues --    5.25982   5.27151   5.28474   5.29362   5.30886
 Alpha virt. eigenvalues --    5.32967   5.33821   5.35057   5.37555   5.38058
 Alpha virt. eigenvalues --    5.38942   5.39548   5.41720   5.44815   5.44989
 Alpha virt. eigenvalues --    5.46076   5.48743   5.49949   5.52235   5.52626
 Alpha virt. eigenvalues --    5.54046   5.55690   5.56421   5.60399   5.67022
 Alpha virt. eigenvalues --    5.72081   5.73650   5.75418   5.84780   5.94543
 Alpha virt. eigenvalues --    5.96960   6.01899   6.06187   6.06467   6.08996
 Alpha virt. eigenvalues --    6.11133   6.12743   6.12979   6.15334   6.23585
 Alpha virt. eigenvalues --    6.30964   6.42258   6.43506   6.69196   6.75668
 Alpha virt. eigenvalues --    6.77964   6.84265   6.97882   7.05776   7.10183
 Alpha virt. eigenvalues --    7.18667   7.46349   7.52303   7.62466   7.71503
 Alpha virt. eigenvalues --   10.01001  10.73480  10.87727  13.48545  13.98325
 Alpha virt. eigenvalues --   14.06838  14.13295
  Beta  occ. eigenvalues --  -19.78419 -19.76422 -10.65864 -10.62794 -10.60979
  Beta  occ. eigenvalues --  -10.60949 -10.60403  -1.26575  -0.98255  -0.92194
  Beta  occ. eigenvalues --   -0.80091  -0.79720  -0.76920  -0.63213  -0.57394
  Beta  occ. eigenvalues --   -0.54925  -0.54613  -0.51516  -0.51155  -0.51007
  Beta  occ. eigenvalues --   -0.45544  -0.45350  -0.44212  -0.43605  -0.42971
  Beta  occ. eigenvalues --   -0.40270  -0.40197  -0.34819  -0.32174
  Beta virt. eigenvalues --   -0.03556   0.07262   0.09792   0.11748   0.12291
  Beta virt. eigenvalues --    0.13506   0.13930   0.14411   0.15314   0.17106
  Beta virt. eigenvalues --    0.17469   0.18627   0.19277   0.19591   0.21269
  Beta virt. eigenvalues --    0.21713   0.24490   0.24729   0.27353   0.29898
  Beta virt. eigenvalues --    0.31577   0.33006   0.35023   0.37155   0.37923
  Beta virt. eigenvalues --    0.39012   0.40857   0.42370   0.44789   0.45349
  Beta virt. eigenvalues --    0.46831   0.49457   0.49760   0.50218   0.51270
  Beta virt. eigenvalues --    0.51416   0.52505   0.53047   0.53328   0.54941
  Beta virt. eigenvalues --    0.54988   0.56037   0.56402   0.57348   0.59401
  Beta virt. eigenvalues --    0.59835   0.60230   0.60752   0.64463   0.65977
  Beta virt. eigenvalues --    0.66752   0.69778   0.72908   0.75481   0.76319
  Beta virt. eigenvalues --    0.78710   0.80260   0.81462   0.83387   0.85393
  Beta virt. eigenvalues --    0.86753   0.89397   0.91118   0.91693   0.94896
  Beta virt. eigenvalues --    0.95920   0.96244   0.97085   0.97834   1.00821
  Beta virt. eigenvalues --    1.02994   1.03605   1.04922   1.05336   1.05766
  Beta virt. eigenvalues --    1.08351   1.09846   1.11565   1.13256   1.15550
  Beta virt. eigenvalues --    1.16971   1.17550   1.18840   1.19580   1.19792
  Beta virt. eigenvalues --    1.20439   1.23338   1.24697   1.25427   1.29497
  Beta virt. eigenvalues --    1.30057   1.30933   1.32115   1.34259   1.35156
  Beta virt. eigenvalues --    1.35803   1.36580   1.38000   1.38464   1.38927
  Beta virt. eigenvalues --    1.39171   1.40681   1.42644   1.43062   1.44017
  Beta virt. eigenvalues --    1.45346   1.46037   1.47909   1.48877   1.50569
  Beta virt. eigenvalues --    1.56009   1.56466   1.59282   1.60182   1.61986
  Beta virt. eigenvalues --    1.63218   1.63797   1.65349   1.66198   1.69644
  Beta virt. eigenvalues --    1.73176   1.78855   1.80616   1.82120   1.84384
  Beta virt. eigenvalues --    1.94433   1.95540   2.04394   2.06029   2.15946
  Beta virt. eigenvalues --    2.24251   2.24661   2.30967   2.32771   2.36317
  Beta virt. eigenvalues --    2.38460   2.40699   2.43570   2.46121   2.47129
  Beta virt. eigenvalues --    2.50015   2.51484   2.53632   2.56104   2.57787
  Beta virt. eigenvalues --    2.61920   2.66018   2.69633   2.70987   2.71740
  Beta virt. eigenvalues --    2.71859   2.73215   2.74580   2.75543   2.76960
  Beta virt. eigenvalues --    2.78307   2.87555   2.88582   2.89657   2.91308
  Beta virt. eigenvalues --    2.91677   2.92392   2.93329   2.94259   2.94824
  Beta virt. eigenvalues --    2.95214   2.96393   2.99631   3.02432   3.04480
  Beta virt. eigenvalues --    3.05304   3.06212   3.08819   3.09413   3.10880
  Beta virt. eigenvalues --    3.11337   3.14357   3.15491   3.16018   3.17053
  Beta virt. eigenvalues --    3.17705   3.17774   3.17988   3.20103   3.21056
  Beta virt. eigenvalues --    3.21684   3.22395   3.22695   3.25111   3.25849
  Beta virt. eigenvalues --    3.26330   3.29691   3.31623   3.32690   3.41524
  Beta virt. eigenvalues --    3.42934   3.43508   3.44100   3.46113   3.47857
  Beta virt. eigenvalues --    3.48277   3.48564   3.48990   3.50511   3.51461
  Beta virt. eigenvalues --    3.52089   3.53641   3.55924   3.57381   3.57582
  Beta virt. eigenvalues --    3.57971   3.59887   3.60100   3.61305   3.61612
  Beta virt. eigenvalues --    3.62713   3.64387   3.67530   3.71755   3.73284
  Beta virt. eigenvalues --    3.73810   3.75655   3.80943   3.83345   3.83480
  Beta virt. eigenvalues --    3.84838   3.88745   3.89272   3.90310   3.91206
  Beta virt. eigenvalues --    3.92295   3.93034   3.94947   3.96721   3.98283
  Beta virt. eigenvalues --    3.98525   3.99160   4.01418   4.02596   4.05797
  Beta virt. eigenvalues --    4.07555   4.09150   4.09718   4.10196   4.11020
  Beta virt. eigenvalues --    4.11764   4.14362   4.17457   4.18047   4.19951
  Beta virt. eigenvalues --    4.20718   4.21766   4.23829   4.26407   4.26719
  Beta virt. eigenvalues --    4.28764   4.31076   4.32239   4.32480   4.33366
  Beta virt. eigenvalues --    4.34596   4.36138   4.37469   4.38134   4.38810
  Beta virt. eigenvalues --    4.42462   4.45028   4.46472   4.47916   4.48699
  Beta virt. eigenvalues --    4.51608   4.53367   4.55074   4.57986   4.58853
  Beta virt. eigenvalues --    4.62425   4.63972   4.67416   4.69876   4.71163
  Beta virt. eigenvalues --    4.73115   4.75526   4.81758   4.83648   4.84689
  Beta virt. eigenvalues --    4.90136   4.93739   4.95910   4.96283   4.97057
  Beta virt. eigenvalues --    4.98546   5.00750   5.01761   5.03474   5.04902
  Beta virt. eigenvalues --    5.07769   5.12771   5.13331   5.18570   5.24063
  Beta virt. eigenvalues --    5.24648   5.26429   5.27284   5.28683   5.29627
  Beta virt. eigenvalues --    5.31317   5.33199   5.34138   5.35387   5.38012
  Beta virt. eigenvalues --    5.38479   5.39224   5.39901   5.42058   5.45002
  Beta virt. eigenvalues --    5.45225   5.46311   5.49010   5.50167   5.52411
  Beta virt. eigenvalues --    5.52829   5.54360   5.55919   5.56656   5.60525
  Beta virt. eigenvalues --    5.67688   5.72465   5.74452   5.76616   5.85537
  Beta virt. eigenvalues --    5.94600   5.97514   6.02754   6.06487   6.06671
  Beta virt. eigenvalues --    6.09168   6.11392   6.13047   6.13502   6.15918
  Beta virt. eigenvalues --    6.25500   6.31766   6.43541   6.44213   6.70158
  Beta virt. eigenvalues --    6.79126   6.80283   6.85724   7.00121   7.08411
  Beta virt. eigenvalues --    7.10862   7.20911   7.46528   7.54276   7.64043
  Beta virt. eigenvalues --    7.72731  10.02329  10.74362  10.88663  13.48545
  Beta virt. eigenvalues --   13.98470  14.06856  14.13321
          Condensed to atoms (all electrons):
               1          2          3          4          5          6
     1  C    4.857417   0.414438   0.414753   0.336702   0.000100  -0.000143
     2  H    0.414438   0.576965  -0.026450  -0.038622   0.000012   0.000041
     3  H    0.414753  -0.026450   0.570763  -0.038141   0.000025  -0.000009
     4  C    0.336702  -0.038622  -0.038141   5.165425  -0.003527   0.001754
     5  C    0.000100   0.000012   0.000025  -0.003527   4.619138   0.388154
     6  H   -0.000143   0.000041  -0.000009   0.001754   0.388154   0.691517
     7  H   -0.000007   0.000005  -0.000002   0.000433   0.396130  -0.036223
     8  H    0.000054   0.000003  -0.000001  -0.000183   0.416268  -0.056292
     9  O    0.000164  -0.000055  -0.000027   0.004253   0.302461  -0.053615
    10  O    0.000994   0.001085   0.001062  -0.089171  -0.048598   0.000361
    11  H   -0.013259  -0.002741  -0.003308   0.271319   0.001380   0.004284
    12  H    0.397381  -0.032291  -0.032114  -0.038557  -0.000010   0.000032
    13  C   -0.052655  -0.005550   0.007301   0.320951  -0.001103  -0.003507
    14  H    0.007240   0.000034  -0.000325  -0.040419  -0.002489  -0.006215
    15  H   -0.004585   0.003331   0.000019  -0.041698  -0.001004  -0.000678
    16  H   -0.003740  -0.000443  -0.000396  -0.034165   0.000062   0.000132
    17  C   -0.050721   0.007292  -0.004577   0.331620   0.000147   0.000007
    18  H    0.007270  -0.000305   0.000022  -0.033881  -0.000418  -0.000013
    19  H   -0.004862  -0.000404  -0.000429  -0.036472  -0.000004   0.000001
    20  H   -0.004490   0.000005   0.003255  -0.036361   0.000047  -0.000015
               7          8          9         10         11         12
     1  C   -0.000007   0.000054   0.000164   0.000994  -0.013259   0.397381
     2  H    0.000005   0.000003  -0.000055   0.001085  -0.002741  -0.032291
     3  H   -0.000002  -0.000001  -0.000027   0.001062  -0.003308  -0.032114
     4  C    0.000433  -0.000183   0.004253  -0.089171   0.271319  -0.038557
     5  C    0.396130   0.416268   0.302461  -0.048598   0.001380  -0.000010
     6  H   -0.036223  -0.056292  -0.053615   0.000361   0.004284   0.000032
     7  H    0.593673  -0.028369  -0.026445   0.006955  -0.000396   0.000000
     8  H   -0.028369   0.604333  -0.037660   0.004140   0.000551  -0.000001
     9  O   -0.026445  -0.037660   7.948474   0.064275  -0.026300  -0.000021
    10  O    0.006955   0.004140   0.064275   8.108532   0.163833  -0.000281
    11  H   -0.000396   0.000551  -0.026300   0.163833   0.447228   0.004242
    12  H    0.000000  -0.000001  -0.000021  -0.000281   0.004242   0.608668
    13  C   -0.000223  -0.000060  -0.000406   0.000958  -0.020452  -0.004646
    14  H   -0.000076   0.000668   0.007608  -0.000720  -0.004340  -0.000437
    15  H    0.000134   0.000051   0.000059   0.000821  -0.002405  -0.000668
    16  H   -0.000001  -0.000005   0.000027  -0.000227   0.003228   0.004913
    17  C    0.000006  -0.000080  -0.006636   0.007916  -0.017317  -0.003959
    18  H   -0.000001   0.000099   0.007803  -0.002632  -0.002763  -0.000319
    19  H   -0.000006  -0.000001  -0.000101   0.000080   0.003898   0.004063
    20  H   -0.000006  -0.000005  -0.000263   0.002247  -0.004186  -0.000586
              13         14         15         16         17         18
     1  C   -0.052655   0.007240  -0.004585  -0.003740  -0.050721   0.007270
     2  H   -0.005550   0.000034   0.003331  -0.000443   0.007292  -0.000305
     3  H    0.007301  -0.000325   0.000019  -0.000396  -0.004577   0.000022
     4  C    0.320951  -0.040419  -0.041698  -0.034165   0.331620  -0.033881
     5  C   -0.001103  -0.002489  -0.001004   0.000062   0.000147  -0.000418
     6  H   -0.003507  -0.006215  -0.000678   0.000132   0.000007  -0.000013
     7  H   -0.000223  -0.000076   0.000134  -0.000001   0.000006  -0.000001
     8  H   -0.000060   0.000668   0.000051  -0.000005  -0.000080   0.000099
     9  O   -0.000406   0.007608   0.000059   0.000027  -0.006636   0.007803
    10  O    0.000958  -0.000720   0.000821  -0.000227   0.007916  -0.002632
    11  H   -0.020452  -0.004340  -0.002405   0.003228  -0.017317  -0.002763
    12  H   -0.004646  -0.000437  -0.000668   0.004913  -0.003959  -0.000319
    13  C    4.918726   0.415338   0.413657   0.395047  -0.053124  -0.006211
    14  H    0.415338   0.568986  -0.029289  -0.029444  -0.004591   0.003164
    15  H    0.413657  -0.029289   0.581147  -0.029796   0.007257   0.000074
    16  H    0.395047  -0.029444  -0.029796   0.591832  -0.003684  -0.000525
    17  C   -0.053124  -0.004591   0.007257  -0.003684   4.868802   0.409576
    18  H   -0.006211   0.003164   0.000074  -0.000525   0.409576   0.561960
    19  H   -0.003338  -0.000692  -0.000351   0.004996   0.394493  -0.033319
    20  H    0.007333   0.000002  -0.000380  -0.000294   0.413065  -0.024056
              19         20
     1  C   -0.004862  -0.004490
     2  H   -0.000404   0.000005
     3  H   -0.000429   0.003255
     4  C   -0.036472  -0.036361
     5  C   -0.000004   0.000047
     6  H    0.000001  -0.000015
     7  H   -0.000006  -0.000006
     8  H   -0.000001  -0.000005
     9  O   -0.000101  -0.000263
    10  O    0.000080   0.002247
    11  H    0.003898  -0.004186
    12  H    0.004063  -0.000586
    13  C   -0.003338   0.007333
    14  H   -0.000692   0.000002
    15  H   -0.000351  -0.000380
    16  H    0.004996  -0.000294
    17  C    0.394493   0.413065
    18  H   -0.033319  -0.024056
    19  H    0.613393  -0.031995
    20  H   -0.031995   0.571822
          Atomic-Atomic Spin Densities.
               1          2          3          4          5          6
     1  C   -0.021762   0.003245   0.003485  -0.017877  -0.000074   0.000262
     2  H    0.003245   0.005139   0.000806  -0.003368  -0.000019   0.000096
     3  H    0.003485   0.000806   0.005267  -0.003763  -0.000006   0.000025
     4  C   -0.017877  -0.003368  -0.003763   0.610950   0.001585  -0.004645
     5  C   -0.000074  -0.000019  -0.000006   0.001585  -0.007415   0.002361
     6  H    0.000262   0.000096   0.000025  -0.004645   0.002361   0.005488
     7  H   -0.000004  -0.000002  -0.000000   0.000129   0.000928  -0.001284
     8  H   -0.000039  -0.000016  -0.000005   0.000928  -0.002137  -0.002065
     9  O   -0.000351  -0.000049  -0.000038   0.014913   0.003123  -0.001707
    10  O    0.005070   0.000780   0.000807  -0.090446  -0.003356   0.003923
    11  H   -0.002466  -0.000786  -0.000576   0.084299   0.001526  -0.003804
    12  H    0.001467  -0.003973  -0.003801  -0.011815   0.000013  -0.000055
    13  C    0.004407   0.000918   0.000147  -0.019922  -0.000729   0.002206
    14  H   -0.000032   0.000037   0.000007  -0.003582  -0.000625   0.001231
    15  H    0.000736   0.000395   0.000064  -0.002947  -0.000252   0.000894
    16  H   -0.001225  -0.000647  -0.000213  -0.010738   0.000170  -0.000547
    17  C    0.005576   0.000295   0.001185  -0.025075  -0.000110   0.000302
    18  H    0.000113   0.000020   0.000057  -0.004649  -0.000049   0.000105
    19  H   -0.001241  -0.000211  -0.000605  -0.008929   0.000020  -0.000048
    20  H    0.000875   0.000074   0.000386  -0.003965  -0.000008   0.000020
               7          8          9         10         11         12
     1  C   -0.000004  -0.000039  -0.000351   0.005070  -0.002466   0.001467
     2  H   -0.000002  -0.000016  -0.000049   0.000780  -0.000786  -0.003973
     3  H   -0.000000  -0.000005  -0.000038   0.000807  -0.000576  -0.003801
     4  C    0.000129   0.000928   0.014913  -0.090446   0.084299  -0.011815
     5  C    0.000928  -0.002137   0.003123  -0.003356   0.001526   0.000013
     6  H   -0.001284  -0.002065  -0.001707   0.003923  -0.003804  -0.000055
     7  H   -0.002007   0.001140   0.000186  -0.000238   0.000104   0.000000
     8  H    0.001140   0.004452  -0.001128   0.000699   0.001223   0.000004
     9  O    0.000186  -0.001128   0.069286  -0.051983   0.012163   0.000045
    10  O   -0.000238   0.000699  -0.051983   0.663758  -0.067540  -0.000606
    11  H    0.000104   0.001223   0.012163  -0.067540  -0.084844   0.000868
    12  H    0.000000   0.000004   0.000045  -0.000606   0.000868   0.049509
    13  C   -0.000049  -0.000200  -0.002934   0.006993  -0.004174  -0.001007
    14  H   -0.000048  -0.000116  -0.001427   0.000852   0.000742  -0.000081
    15  H   -0.000024  -0.000077  -0.000298   0.000855  -0.000439  -0.000565
    16  H    0.000015   0.000027   0.000364  -0.000826   0.000946   0.003796
    17  C   -0.000014  -0.000056  -0.002075   0.008742  -0.006684  -0.001983
    18  H   -0.000015  -0.000025  -0.000936   0.001335  -0.000104  -0.000162
    19  H    0.000003   0.000005   0.000222  -0.000866   0.000953   0.003715
    20  H   -0.000001  -0.000005  -0.000139   0.000952  -0.000598  -0.000581
              13         14         15         16         17         18
     1  C    0.004407  -0.000032   0.000736  -0.001225   0.005576   0.000113
     2  H    0.000918   0.000037   0.000395  -0.000647   0.000295   0.000020
     3  H    0.000147   0.000007   0.000064  -0.000213   0.001185   0.000057
     4  C   -0.019922  -0.003582  -0.002947  -0.010738  -0.025075  -0.004649
     5  C   -0.000729  -0.000625  -0.000252   0.000170  -0.000110  -0.000049
     6  H    0.002206   0.001231   0.000894  -0.000547   0.000302   0.000105
     7  H   -0.000049  -0.000048  -0.000024   0.000015  -0.000014  -0.000015
     8  H   -0.000200  -0.000116  -0.000077   0.000027  -0.000056  -0.000025
     9  O   -0.002934  -0.001427  -0.000298   0.000364  -0.002075  -0.000936
    10  O    0.006993   0.000852   0.000855  -0.000826   0.008742   0.001335
    11  H   -0.004174   0.000742  -0.000439   0.000946  -0.006684  -0.000104
    12  H   -0.001007  -0.000081  -0.000565   0.003796  -0.001983  -0.000162
    13  C   -0.021692   0.004724   0.003156  -0.002187   0.007542   0.001270
    14  H    0.004724   0.003879   0.000140  -0.002523   0.000982   0.000045
    15  H    0.003156   0.000140   0.003491  -0.003185   0.000264   0.000039
    16  H   -0.002187  -0.002523  -0.003185   0.050623  -0.002499  -0.000515
    17  C    0.007542   0.000982   0.000264  -0.002499  -0.017370   0.005166
    18  H    0.001270   0.000045   0.000039  -0.000515   0.005166   0.004698
    19  H   -0.002217  -0.000308  -0.000184   0.004150  -0.002499  -0.003091
    20  H    0.000214   0.000019   0.000022  -0.000205   0.004089   0.000451
              19         20
     1  C   -0.001241   0.000875
     2  H   -0.000211   0.000074
     3  H   -0.000605   0.000386
     4  C   -0.008929  -0.003965
     5  C    0.000020  -0.000008
     6  H   -0.000048   0.000020
     7  H    0.000003  -0.000001
     8  H    0.000005  -0.000005
     9  O    0.000222  -0.000139
    10  O   -0.000866   0.000952
    11  H    0.000953  -0.000598
    12  H    0.003715  -0.000581
    13  C   -0.002217   0.000214
    14  H   -0.000308   0.000019
    15  H   -0.000184   0.000022
    16  H    0.004150  -0.000205
    17  C   -0.002499   0.004089
    18  H   -0.003091   0.000451
    19  H    0.047278  -0.003307
    20  H   -0.003307   0.004009
 Mulliken charges and spin densities:
               1          2
     1  C   -0.302051  -0.019834
     2  H    0.103650   0.002735
     3  H    0.108578   0.003227
     4  C   -0.001260   0.501084
     5  C   -0.066771  -0.005055
     6  H    0.070430   0.002758
     7  H    0.094420  -0.001180
     8  H    0.096491   0.002607
     9  O   -0.183596   0.037236
    10  O   -0.221630   0.478904
    11  H    0.197504  -0.069191
    12  H    0.094591   0.034787
    13  C   -0.328034  -0.023535
    14  H    0.115998   0.003917
    15  H    0.104304   0.002084
    16  H    0.102484   0.034781
    17  C   -0.295490  -0.024223
    18  H    0.114475   0.003756
    19  H    0.091049   0.032839
    20  H    0.104860   0.002304
 Sum of Mulliken charges =  -0.00000   1.00000
 Mulliken charges and spin densities with hydrogens summed into heavy atoms:
               1          2
     1  C    0.004768   0.020915
     4  C   -0.001260   0.501084
     5  C    0.194569  -0.000870
     9  O   -0.183596   0.037236
    10  O   -0.024126   0.409713
    13  C   -0.005248   0.017247
    17  C    0.014894   0.014675
 APT charges:
               1
     1  C   -0.044254
     2  H   -0.008346
     3  H   -0.004979
     4  C    0.597554
     5  C    0.456285
     6  H   -0.031452
     7  H   -0.010899
     8  H   -0.037831
     9  O   -0.465585
    10  O    0.204024
    11  H   -0.419822
    12  H   -0.045379
    13  C   -0.077907
    14  H    0.003377
    15  H   -0.010903
    16  H   -0.017220
    17  C   -0.058515
    18  H    0.007246
    19  H   -0.029857
    20  H   -0.005536
 Sum of APT charges =  -0.00000
 APT charges with hydrogens summed into heavy atoms:
               1
     1  C   -0.102958
     4  C    0.597554
     5  C    0.376103
     9  O   -0.465585
    10  O   -0.215799
    13  C   -0.102653
    17  C   -0.086663
 Electronic spatial extent (au):  <R**2>=           1065.3497
 Charge=             -0.0000 electrons
 Dipole moment (field-independent basis, Debye):
    X=              0.7385    Y=              2.0160    Z=             -0.1547  Tot=              2.1526
 Quadrupole moment (field-independent basis, Debye-Ang):
   XX=            -42.0050   YY=            -47.3258   ZZ=            -46.7228
   XY=             -3.7368   XZ=              0.0225   YZ=              0.2832
 Traceless Quadrupole moment (field-independent basis, Debye-Ang):
   XX=              3.3462   YY=             -1.9746   ZZ=             -1.3716
   XY=             -3.7368   XZ=              0.0225   YZ=              0.2832
 Octapole moment (field-independent basis, Debye-Ang**2):
  XXX=            -25.8490  YYY=             -5.2345  ZZZ=              0.8937  XYY=             -1.9309
  XXY=              5.3154  XXZ=              0.4491  XZZ=             -4.4356  YZZ=             -0.4374
  YYZ=              1.0792  XYZ=             -0.3553
 Hexadecapole moment (field-independent basis, Debye-Ang**3):
 XXXX=           -859.9476 YYYY=           -278.7467 ZZZZ=           -240.9248 XXXY=             -4.5007
 XXXZ=             -6.6028 YYYX=              1.0309 YYYZ=             -0.2721 ZZZX=              2.5604
 ZZZY=             -1.1345 XXYY=           -198.8232 XXZZ=           -189.3074 YYZZ=            -85.9237
 XXYZ=             -6.9306 YYXZ=              1.5000 ZZXY=              0.8041
 N-N= 3.365363152226D+02 E-N=-1.486734250711D+03  KE= 3.465778881217D+02
  Exact polarizability: 116.222   2.964  71.677  -2.337  -1.560  70.121
 Approx polarizability: 101.312   4.814  80.302  -0.457  -3.275  80.269
                          Isotropic Fermi Contact Couplings
        Atom                 a.u.       MegaHertz       Gauss      10(-4) cm-1
     1  C(13)             -0.00485      -5.45742      -1.94734      -1.82040
     2  H(1)               0.00197       8.78482       3.13464       2.93030
     3  H(1)               0.00212       9.46375       3.37690       3.15677
     4  C(13)              0.08228      92.49396      33.00415      30.85267
     5  C(13)             -0.00408      -4.58330      -1.63543      -1.52882
     6  H(1)               0.00199       8.89845       3.17519       2.96820
     7  H(1)              -0.00025      -1.12395      -0.40105      -0.37491
     8  H(1)               0.00070       3.13303       1.11794       1.04507
     9  O(17)              0.01749     -10.60060      -3.78256      -3.53598
    10  O(17)              0.06055     -36.70586     -13.09756     -12.24376
    11  H(1)              -0.01440     -64.36928     -22.96856     -21.47128
    12  H(1)               0.01427      63.80145      22.76594      21.28187
    13  C(13)             -0.00514      -5.77817      -2.06179      -1.92739
    14  H(1)               0.00302      13.48071       4.81025       4.49668
    15  H(1)               0.00122       5.44917       1.94440       1.81765
    16  H(1)               0.01416      63.31366      22.59189      21.11916
    17  C(13)             -0.00630      -7.08376      -2.52766      -2.36289
    18  H(1)               0.00259      11.57789       4.13128       3.86197
    19  H(1)               0.01353      60.49489      21.58608      20.17892
    20  H(1)               0.00156       6.95871       2.48304       2.32118
 --------------------------------------------------------
       Center         ----  Spin Dipole Couplings  ----
                      3XX-RR        3YY-RR        3ZZ-RR
 --------------------------------------------------------
     1   Atom        0.015960     -0.013824     -0.002136
     2   Atom       -0.002138     -0.004553      0.006691
     3   Atom        0.002863     -0.003546      0.000683
     4   Atom        0.374739     -0.190662     -0.184077
     5   Atom        0.003368      0.002335     -0.005702
     6   Atom       -0.000355      0.006026     -0.005671
     7   Atom        0.003069     -0.000025     -0.003044
     8   Atom        0.006134     -0.001844     -0.004290
     9   Atom        0.237124      0.006218     -0.243342
    10   Atom        0.784746     -0.126443     -0.658303
    11   Atom        0.152206     -0.062433     -0.089772
    12   Atom        0.006398     -0.005197     -0.001201
    13   Atom       -0.009521      0.021320     -0.011799
    14   Atom       -0.001943      0.001890      0.000052
    15   Atom       -0.004047      0.010864     -0.006818
    16   Atom       -0.001684      0.004534     -0.002850
    17   Atom        0.000421     -0.006460      0.006039
    18   Atom       -0.004669     -0.004715      0.009384
    19   Atom        0.000701     -0.002686      0.001986
    20   Atom       -0.001052      0.005503     -0.004451
 --------------------------------------------------------
                        XY            XZ            YZ
 --------------------------------------------------------
     1   Atom        0.004550      0.018232      0.001961
     2   Atom        0.003700      0.005831      0.005088
     3   Atom       -0.004435      0.006949     -0.005561
     4   Atom        0.302604     -0.309638     -0.134742
     5   Atom       -0.009561      0.001681     -0.000150
     6   Atom       -0.006047     -0.000622      0.000181
     7   Atom       -0.004425      0.002236     -0.001998
     8   Atom       -0.006070     -0.002327      0.001391
     9   Atom        0.320098     -0.120832     -0.062472
    10   Atom        1.254301     -0.784491     -0.546078
    11   Atom        0.121773     -0.078773     -0.037964
    12   Atom        0.002823      0.003323     -0.000377
    13   Atom        0.005982     -0.000721     -0.011048
    14   Atom       -0.003535      0.003469     -0.008935
    15   Atom       -0.001205     -0.000943      0.001972
    16   Atom        0.002179     -0.002800     -0.004994
    17   Atom       -0.006768     -0.014431      0.011313
    18   Atom        0.001509     -0.000775      0.006138
    19   Atom       -0.000368     -0.006272      0.002852
    20   Atom       -0.005366     -0.003843      0.005723
 --------------------------------------------------------


 ---------------------------------------------------------------------------------
              Anisotropic Spin Dipole Couplings in Principal Axis System
 ---------------------------------------------------------------------------------

       Atom             a.u.   MegaHertz   Gauss  10(-4) cm-1        Axes

              Baa    -0.0148    -1.985    -0.708    -0.662 -0.3362  0.8748  0.3488
     1 C(13)  Bbb    -0.0131    -1.751    -0.625    -0.584 -0.4156 -0.4702  0.7786
              Bcc     0.0278     3.736     1.333     1.246  0.8451  0.1168  0.5216
 
              Baa    -0.0073    -3.901    -1.392    -1.301 -0.4962  0.8616 -0.1064
     2 H(1)   Bbb    -0.0046    -2.466    -0.880    -0.822  0.7508  0.3644 -0.5509
              Bcc     0.0119     6.367     2.272     2.124  0.4359  0.3533  0.8277
 
              Baa    -0.0074    -3.948    -1.409    -1.317 -0.0641  0.7955  0.6025
     3 H(1)   Bbb    -0.0046    -2.440    -0.871    -0.814  0.7388  0.4437 -0.5073
              Bcc     0.0120     6.388     2.279     2.131  0.6709 -0.4126  0.6162
 
              Baa    -0.3222   -43.237   -15.428   -14.422 -0.1718  0.8695  0.4630
     4 C(13)  Bbb    -0.3217   -43.165   -15.402   -14.398  0.4992 -0.3284  0.8019
              Bcc     0.6439    86.402    30.830    28.821  0.8493  0.3689 -0.3777
 
              Baa    -0.0074    -0.994    -0.355    -0.331  0.6028  0.5835 -0.5442
     5 C(13)  Bbb    -0.0051    -0.687    -0.245    -0.229  0.3294  0.4393  0.8358
              Bcc     0.0125     1.680     0.600     0.561  0.7267 -0.6831  0.0726
 
              Baa    -0.0058    -3.091    -1.103    -1.031  0.2191  0.0973  0.9708
     6 H(1)   Bbb    -0.0039    -2.078    -0.741    -0.693  0.8275  0.5087 -0.2378
              Bcc     0.0097     5.169     1.844     1.724 -0.5170  0.8554  0.0310
 
              Baa    -0.0040    -2.155    -0.769    -0.719 -0.0137  0.4334  0.9011
     7 H(1)   Bbb    -0.0030    -1.626    -0.580    -0.542  0.6295  0.7039 -0.3290
              Bcc     0.0071     3.781     1.349     1.261  0.7769 -0.5627  0.2825
 
              Baa    -0.0052    -2.752    -0.982    -0.918  0.3996  0.8624 -0.3107
     8 H(1)   Bbb    -0.0048    -2.543    -0.908    -0.848  0.3068  0.1936  0.9319
              Bcc     0.0099     5.295     1.889     1.766  0.8638 -0.4677 -0.1872
 
              Baa    -0.2741    19.832     7.077     6.615  0.3178 -0.1545  0.9355
     9 O(17)  Bbb    -0.2128    15.396     5.494     5.135 -0.4971  0.8130  0.3032
              Bcc     0.4868   -35.228   -12.570   -11.751  0.8074  0.5613 -0.1816
 
              Baa    -1.0067    72.846    25.993    24.299 -0.6367  0.6460 -0.4211
    10 O(17)  Bbb    -0.9998    72.342    25.813    24.131 -0.0093  0.5397  0.8418
              Bcc     2.0065  -145.188   -51.807   -48.429  0.7711  0.5399 -0.3376
 
              Baa    -0.1184   -63.149   -22.533   -21.064 -0.2813  0.8770  0.3897
    11 H(1)   Bbb    -0.1127   -60.114   -21.450   -20.052  0.3859 -0.2684  0.8826
              Bcc     0.2310   123.263    43.983    41.116  0.8786  0.3986 -0.2629
 
              Baa    -0.0061    -3.278    -1.170    -1.093 -0.2764  0.9262  0.2564
    12 H(1)   Bbb    -0.0020    -1.057    -0.377    -0.353 -0.2511 -0.3271  0.9110
              Bcc     0.0081     4.335     1.547     1.446  0.9277  0.1874  0.3230
 
              Baa    -0.0154    -2.062    -0.736    -0.688 -0.2058  0.3128  0.9273
    13 C(13)  Bbb    -0.0103    -1.383    -0.493    -0.461  0.9643 -0.0963  0.2465
              Bcc     0.0257     3.445     1.229     1.149  0.1664  0.9449 -0.2818
 
              Baa    -0.0080    -4.279    -1.527    -1.427 -0.0438  0.6603  0.7497
    14 H(1)   Bbb    -0.0037    -1.986    -0.709    -0.663  0.9394  0.2826 -0.1941
              Bcc     0.0117     6.266     2.236     2.090 -0.3401  0.6958 -0.6327
 
              Baa    -0.0072    -3.865    -1.379    -1.289  0.2510 -0.0883  0.9640
    15 H(1)   Bbb    -0.0039    -2.107    -0.752    -0.703  0.9642  0.1105 -0.2409
              Bcc     0.0112     5.972     2.131     1.992 -0.0853  0.9899  0.1129
 
              Baa    -0.0060    -3.211    -1.146    -1.071  0.3918  0.3262  0.8603
    16 H(1)   Bbb    -0.0021    -1.121    -0.400    -0.374  0.8642 -0.4513 -0.2225
              Bcc     0.0081     4.332     1.546     1.445  0.3156  0.8306 -0.4587
 
              Baa    -0.0136    -1.830    -0.653    -0.610 -0.3112  0.7072 -0.6348
    17 C(13)  Bbb    -0.0100    -1.337    -0.477    -0.446  0.7636  0.5837  0.2759
              Bcc     0.0236     3.167     1.130     1.057 -0.5657  0.3989  0.7217
 
              Baa    -0.0079    -4.212    -1.503    -1.405 -0.4634  0.8283 -0.3150
    18 H(1)   Bbb    -0.0038    -2.023    -0.722    -0.675  0.8861  0.4380 -0.1519
              Bcc     0.0117     6.234     2.224     2.079 -0.0122  0.3495  0.9369
 
              Baa    -0.0059    -3.155    -1.126    -1.053  0.5807 -0.5008  0.6418
    19 H(1)   Bbb    -0.0023    -1.205    -0.430    -0.402  0.5108  0.8381  0.1917
              Bcc     0.0082     4.360     1.556     1.454 -0.6339  0.2165  0.7425
 
              Baa    -0.0075    -3.997    -1.426    -1.333  0.3186 -0.2687  0.9090
    20 H(1)   Bbb    -0.0040    -2.129    -0.760    -0.710  0.8280  0.5457 -0.1289
              Bcc     0.0115     6.126     2.186     2.043 -0.4614  0.7937  0.3964
 

 ---------------------------------------------------------------------------------

 Calling FoFJK, ICntrl=  10100127 FMM=F ISym2X=0 I1Cent= 0 IOpClX= 1 NMat=1 NMatS=1 NMatT=0.
 ***** Axes restored to original set *****
 -------------------------------------------------------------------
 Center     Atomic                   Forces (Hartrees/Bohr)
 Number     Number              X              Y              Z
 -------------------------------------------------------------------
      1        6           0.000709546    0.000152620    0.000203728
      2        1           0.000332291   -0.000377134   -0.000212562
      3        1           0.000060914    0.000544710    0.000051128
      4        6          -0.002244331   -0.001160440    0.001727891
      5        6          -0.002574408    0.004413876    0.002565653
      6        1          -0.001305554   -0.000410077   -0.000184908
      7        1           0.000318348   -0.000311284    0.000226029
      8        1           0.000056246    0.000573765   -0.000452388
      9        8          -0.006871302   -0.000700149   -0.011575955
     10        8           0.004660866   -0.005308154    0.010237074
     11        1           0.005364613    0.002049996   -0.001554537
     12        1          -0.000100794   -0.000194674    0.000623801
     13        6           0.000143634    0.000864752   -0.000622539
     14        1           0.001010136    0.000473945    0.000666600
     15        1           0.000153561   -0.000213183   -0.000748241
     16        1          -0.000549906    0.000160296    0.000125553
     17        6           0.000341370   -0.000341715   -0.000765243
     18        1           0.000884221   -0.000215180    0.000272647
     19        1          -0.000344825   -0.000456034   -0.000092770
     20        1          -0.000044626    0.000454063   -0.000490962
 -------------------------------------------------------------------
 Cartesian Forces:  Max     0.011575955 RMS     0.002659853
 FormGI is forming the generalized inverse of G from B-inverse, IUseBI=4.

 GradGradGradGradGradGradGradGradGradGradGradGradGradGradGradGradGradGrad
 Berny optimization.
 Internal  Forces:  Max     0.014323074 RMS     0.002068513
 Search for a saddle point.
 Step number   1 out of a maximum of  120
 All quantities printed in internal units (Hartrees-Bohrs-Radians)
 Swapping is turned off.
 Second derivative matrix not updated -- analytic derivatives used.
 ITU=  0
     Eigenvalues ---   -0.07275   0.00034   0.00191   0.00230   0.00342
     Eigenvalues ---    0.00560   0.02041   0.02275   0.02958   0.03067
     Eigenvalues ---    0.03476   0.04396   0.04415   0.04493   0.04517
     Eigenvalues ---    0.04587   0.04644   0.07766   0.08504   0.08559
     Eigenvalues ---    0.10666   0.10923   0.11995   0.12053   0.12507
     Eigenvalues ---    0.13287   0.13982   0.14111   0.14144   0.14710
     Eigenvalues ---    0.16764   0.16926   0.17149   0.17773   0.18532
     Eigenvalues ---    0.23298   0.27836   0.29551   0.29711   0.31667
     Eigenvalues ---    0.32544   0.32587   0.32765   0.33089   0.33499
     Eigenvalues ---    0.33630   0.33875   0.33949   0.34406   0.34480
     Eigenvalues ---    0.34487   0.34697   0.36139   0.43979
 Eigenvectors required to have negative eigenvalues:
                          R13       R5        R12       D34       A20
   1                    0.74293  -0.60415  -0.16085   0.07078   0.06721
                          D6        D24       D19       D2        D14
   1                   -0.05148   0.04896   0.04820   0.04704  -0.04698
 RFO step:  Lambda0=1.143497679D-04 Lambda=-1.25305371D-03.
 Linear search not attempted -- option 19 set.
 Iteration  1 RMS(Cart)=  0.06057514 RMS(Int)=  0.00136692
 Iteration  2 RMS(Cart)=  0.00220431 RMS(Int)=  0.00007219
 Iteration  3 RMS(Cart)=  0.00000375 RMS(Int)=  0.00007217
 Iteration  4 RMS(Cart)=  0.00000000 RMS(Int)=  0.00007217
 Variable       Old X    -DE/DX   Delta X   Delta X   Delta X     New X
                                 (Linear)    (Quad)   (Total)
    R1        2.05969  -0.00048   0.00000  -0.00144  -0.00144   2.05825
    R2        2.05956  -0.00048   0.00000  -0.00133  -0.00133   2.05823
    R3        2.84922   0.00115   0.00000   0.00148   0.00148   2.85070
    R4        2.07140  -0.00034   0.00000  -0.00107  -0.00107   2.07033
    R5        2.45735  -0.00009   0.00000   0.02016   0.02016   2.47752
    R6        2.84909   0.00116   0.00000   0.00152   0.00152   2.85060
    R7        2.84915   0.00133   0.00000   0.00181   0.00181   2.85096
    R8        2.06258  -0.00123   0.00000  -0.00277  -0.00277   2.05981
    R9        2.05716  -0.00044   0.00000  -0.00069  -0.00069   2.05647
   R10        2.05961  -0.00054   0.00000  -0.00210  -0.00210   2.05751
   R11        2.67276   0.00586   0.00000   0.01291   0.01291   2.68567
   R12        2.60898   0.01432   0.00000   0.04791   0.04791   2.65689
   R13        2.30768   0.00600   0.00000  -0.01756  -0.01756   2.29012
   R14        2.06164  -0.00122   0.00000  -0.00279  -0.00279   2.05885
   R15        2.06041  -0.00074   0.00000  -0.00215  -0.00215   2.05826
   R16        2.07130  -0.00042   0.00000  -0.00119  -0.00119   2.07011
   R17        2.06039  -0.00084   0.00000  -0.00231  -0.00231   2.05808
   R18        2.07093  -0.00038   0.00000  -0.00086  -0.00086   2.07008
   R19        2.05889  -0.00060   0.00000  -0.00171  -0.00171   2.05718
    A1        1.89616  -0.00028   0.00000  -0.00258  -0.00258   1.89358
    A2        1.94617   0.00015   0.00000   0.00020   0.00020   1.94637
    A3        1.87946  -0.00042   0.00000  -0.00153  -0.00154   1.87792
    A4        1.94379   0.00017   0.00000   0.00080   0.00080   1.94458
    A5        1.87824  -0.00041   0.00000  -0.00158  -0.00159   1.87665
    A6        1.91762   0.00075   0.00000   0.00449   0.00449   1.92210
    A7        1.83155  -0.00043   0.00000  -0.01324  -0.01325   1.81830
    A8        2.00521  -0.00023   0.00000   0.00191   0.00181   2.00702
    A9        2.00667   0.00019   0.00000   0.00112   0.00130   2.00797
   A10        1.82028   0.00066   0.00000  -0.00116  -0.00117   1.81911
   A11        1.77464   0.00015   0.00000   0.00464   0.00464   1.77928
   A12        1.98928  -0.00024   0.00000   0.00455   0.00442   1.99370
   A13        1.92115  -0.00035   0.00000  -0.00172  -0.00172   1.91944
   A14        1.91623  -0.00045   0.00000   0.00104   0.00101   1.91724
   A15        1.93087   0.00122   0.00000   0.00667   0.00666   1.93753
   A16        1.92375  -0.00028   0.00000  -0.00131  -0.00131   1.92244
   A17        1.84582  -0.00079   0.00000  -0.00893  -0.00893   1.83689
   A18        1.92510   0.00063   0.00000   0.00396   0.00395   1.92905
   A19        1.88771   0.00181   0.00000  -0.00710  -0.00710   1.88061
   A20        1.80334   0.00704   0.00000   0.01080   0.01080   1.81414
   A21        1.93714   0.00047   0.00000   0.00314   0.00313   1.94027
[...]
 3400,-0.00001168,-0.00001401,0.00002688,-0.00001242,0.00068489,0.00024
 227,-0.00033519,-0.10733775,-0.04336641,0.09596278,-0.00799136,-0.0082
 9588,0.01693704,0.01240086,0.00613263,-0.01780970,0.11473504,0.0001398
 7,0.00016723,-0.00010837,-0.00001195,-0.00001371,0.00002650,-0.0000319
 5,0.00000984,-0.00002392,-0.00068110,-0.00054093,0.00039652,-0.0452112
 1,-0.07881765,0.07786245,-0.01085530,-0.00588373,0.02058665,-0.0043222
 8,-0.00163081,0.00464859,0.03923910,0.08453617,0.00031331,0.00016816,-
 0.00024918,-0.00002282,0.00000346,0.00003197,-0.00002396,-0.00001649,0
 .00000679,-0.00182161,-0.00091735,0.00066906,0.10031070,0.07079483,-0.
 22824580,-0.00431515,-0.00188454,0.00653779,0.01073830,0.00729000,-0.0
 1581008,-0.11582668,-0.07052558,0.24803208,-0.00472318,-0.00232377,0.0
 0341670,0.00024257,-0.00004689,-0.00019582,0.00030321,0.00027685,-0.00
 010473,0.02434456,0.00880617,-0.01115006,-0.09168831,0.05220596,0.0462
 1806,0.01093142,-0.00176815,-0.00607318,-0.01583961,0.02036250,0.00820
 596,-0.01497242,0.02517528,0.01163048,0.24424950,0.00256551,0.00126363
 ,-0.00206857,-0.00007590,0.00013778,0.00035880,-0.00020721,-0.00009648
 ,0.00000423,-0.02013296,-0.00926285,0.00709887,0.03917441,-0.14416263,
 -0.07997266,0.02499860,-0.03475141,-0.01813006,0.00708378,-0.00904085,
 -0.00269193,0.00915158,-0.00026106,-0.00624494,-0.13226490,0.23564694,
 -0.00446648,-0.00248351,0.00321866,0.00023869,0.00006197,-0.00018180,0
 .00012086,0.00020060,-0.00017233,0.03036832,0.01349750,-0.01254957,0.0
 2211183,-0.05693068,-0.12056128,0.00580977,-0.01292751,-0.00363320,-0.
 01511113,0.02028833,0.00891998,0.01857523,-0.03033432,-0.01241991,0.04
 974307,0.06722063,0.26450475,0.01401582,0.00532406,-0.00371131,-0.0004
 1828,-0.00013273,-0.00021061,-0.00056226,0.00011612,-0.00028657,-0.131
 47700,-0.05895902,0.05130021,-0.03667249,0.02703094,-0.02929919,0.0041
 6416,-0.00506280,-0.00014749,-0.00201876,0.00548984,0.00343179,0.00410
 529,-0.00449967,-0.00371945,-0.09524043,0.03701983,-0.04791261,0.12815
 540,0.00348227,0.00096900,0.00037037,0.00001900,-0.00015720,-0.0002304
 9,-0.00042263,0.00023512,-0.00033609,-0.04061910,-0.01596670,0.0146535
 6,0.02705819,-0.01514150,0.03278808,-0.00059949,0.00350736,0.00191268,
 0.00426666,-0.00419270,-0.00232215,-0.00236022,0.00216198,0.00021481,0
 .03948662,-0.05687823,0.02900540,-0.05125647,0.09904451,0.00219916,0.0
 0139279,-0.00251510,0.00018212,0.00033360,0.00063213,0.00031658,-0.000
 31952,0.00034577,-0.00110749,-0.00064076,0.00490881,-0.00732717,0.0104
 8883,0.00439126,0.00208946,-0.00165293,-0.00034433,0.00219134,-0.00062
 048,0.00295095,0.00231840,-0.00253073,0.00225202,-0.09137968,0.0496809
 3,-0.14316407,0.05552896,-0.08651491,0.16833829,-0.02987812,-0.0105929
 7,0.00308215,0.00126083,0.00034048,0.00053695,0.00102956,0.00010633,0.
 00053101,0.07995567,0.04598343,-0.03945998,0.00692837,-0.01386183,-0.0
 0277111,-0.00009291,0.00341463,0.00159236,-0.00021004,0.00019503,-0.00
 015285,-0.00116225,0.00104250,0.00216859,-0.04976360,0.02544188,-0.048
 84331,0.09377205,0.01958907,0.02602834,-0.07009013,-0.00850565,-0.0027
 2184,0.00116397,0.00006671,-0.00005758,-0.00001818,0.00112769,0.000043
 44,0.00038577,0.04820378,-0.00225968,-0.01654564,0.00641160,-0.0035996
 5,0.00011383,-0.00053961,0.00093677,0.00058946,-0.00001645,-0.00069310
 ,-0.00018840,-0.00065464,0.00018277,0.00087872,-0.00691672,0.01386796,
 -0.02270884,0.03566338,-0.01587053,0.02613416,-0.06166551,0.02712736,-
 0.00748149,-0.00222377,-0.00060850,-0.00045627,-0.00042180,-0.00007525
 ,-0.00042934,0.00006653,0.00010585,-0.02740117,-0.01038482,-0.01375742
 ,-0.00191076,0.00313725,-0.00008178,0.00020480,-0.00086639,-0.00000325
 ,-0.00002297,0.00005645,0.00022262,0.00010908,-0.00008572,-0.00071711,
 -0.01212310,-0.01252582,0.01171031,-0.01456511,0.01171466,-0.03586740,
 0.04235685,0.00328627,0.05619786,-0.25042136,-0.08031526,0.05730337,-0
 .01120909,-0.00454668,0.00269926,0.00336037,0.00131191,-0.00066102,-0.
 02179790,-0.00649946,-0.00069087,0.00048365,-0.00056905,-0.00022005,-0
 .00001047,0.00012319,0.00010667,-0.00007096,0.00004385,-0.00000533,-0.
 00005134,0.00005976,0.00010108,-0.00106727,0.00077967,-0.00131979,0.00
 135208,-0.00045086,0.00168624,-0.00128148,0.00031210,-0.00240279,0.277
 79693,-0.07855334,-0.07580542,0.02130520,0.01772160,0.00666141,-0.0038
 9794,-0.02864431,-0.01033594,0.00707969,-0.00009086,-0.00067702,-0.001
 13740,-0.00002987,-0.00002796,-0.00000355,-0.00000102,-0.00000250,-0.0
 0000931,-0.00000489,0.00001469,0.00000767,-0.00000710,-0.00000346,0.00
 000136,0.00018967,0.00009028,0.00006928,-0.00013531,-0.00019459,0.0001
 3822,0.00059365,0.00075275,-0.00046339,0.08896690,0.07881575,0.0505324
 7,0.01914791,-0.05742189,0.02137277,0.00938916,-0.00562853,0.00998632,
 0.00310006,-0.00324950,-0.02514138,-0.00893832,0.00268226,0.00044063,-
 0.00078442,-0.00029874,0.00002493,0.00018439,0.00008892,-0.00006640,0.
 00006507,0.00000396,-0.00007067,0.00006054,0.00011903,-0.00164860,0.00
 101580,-0.00151566,0.00256275,-0.00000354,0.00145683,-0.00434452,-0.00
 110832,-0.00087331,-0.05642558,-0.02261469,0.06259450,-0.00384129,0.02
 303792,-0.01168777,0.00039464,-0.00052205,0.00104244,-0.00200411,0.000
 31333,-0.00360973,-0.06646940,0.02684716,-0.01428786,0.00114638,-0.001
 58062,-0.00062641,-0.00075409,0.00019914,0.00043750,-0.00036634,0.0002
 0302,-0.00001629,-0.00019215,0.00002863,0.00027668,-0.00400400,0.00419
 151,-0.00571240,0.01137292,-0.00063312,0.00498794,-0.01340274,-0.01722
 898,0.00820973,0.00123966,-0.00008744,0.00101822,0.54102132,0.00177944
 ,-0.00117950,0.00392076,-0.00078133,0.00057225,-0.00097477,-0.00078100
 ,0.00128626,-0.00155040,0.03738455,-0.17856486,0.03078638,-0.00026924,
 0.00120080,0.00043926,-0.00031128,-0.00039094,0.00015114,-0.00009667,-
 0.00013262,-0.00002538,-0.00013351,-0.00018253,-0.00007673,0.00009173,
 0.00015628,-0.00094577,0.00530717,0.00219406,-0.00071511,-0.00774523,-
 0.01437735,0.00689733,-0.00057425,0.00028792,-0.00078604,0.00288437,0.
 48296048,-0.00638476,0.02667446,-0.01083780,0.00039103,0.00089091,0.00
 082239,-0.00340061,0.00016346,-0.00405154,-0.01837894,0.03146130,-0.09
 198535,-0.00044769,0.00079166,0.00023201,0.00053295,0.00000736,0.00014
 918,-0.00013055,-0.00024392,-0.00003907,0.00005021,0.00011556,-0.00012
 273,0.00118072,-0.00106288,0.00111458,-0.00445447,-0.00107069,-0.00065
 658,0.00626357,0.00987211,-0.00459397,0.00063743,-0.00025106,0.0010211
 3,0.00737914,0.04455530,0.56497645,0.00060999,0.00178367,0.00041697,0.
 00004214,-0.00012178,-0.00011262,-0.00001298,-0.00011435,-0.00051635,-
 0.00553009,-0.00116717,-0.00426662,-0.00044710,0.00012991,0.00038272,-
 0.00011714,-0.00005448,0.00012948,-0.00001044,-0.00001325,-0.00000439,
 0.00004897,-0.00003562,-0.00007105,0.00023234,-0.00023912,0.00032442,-
 0.00037463,0.00030461,-0.00053177,0.00063971,0.00010088,0.00014825,0.0
 0033231,-0.00010763,0.00030036,-0.18266600,-0.00720184,-0.13275784,0.1
 9714565,0.00053378,-0.00614259,0.00121375,-0.00022972,0.00004198,0.000
 02957,0.00110141,-0.00002373,0.00161049,0.02264357,0.00219590,0.022778
 80,-0.00036832,0.00045298,0.00027900,-0.00006544,-0.00005251,-0.000122
 87,0.00003694,0.00000352,0.00000784,0.00004128,-0.00013863,-0.00007729
 ,0.00002888,0.00020408,-0.00071170,0.00003473,-0.00028582,0.00037466,0
 .00085272,0.00050012,0.00024065,0.00004369,0.00002079,-0.00025364,-0.0
 0834034,-0.04799021,-0.01207156,0.00820486,0.05225593,0.00010121,0.002
 90224,0.00028140,0.00012469,0.00000458,0.00057376,-0.00082862,0.000171
 63,-0.00032667,-0.00782803,0.00056239,-0.00986929,0.00036304,0.0005467
 9,0.00024625,0.00003043,-0.00031407,-0.00050062,0.00004944,0.00000798,
 -0.00001811,-0.00014472,-0.00024796,-0.00004493,0.00030849,-0.00079688
 ,0.00103100,-0.00066059,0.00027168,-0.00090212,-0.00006267,0.00016345,
 -0.00024892,-0.00016946,-0.00011575,0.00009102,-0.13179097,-0.01138243
 ,-0.17550065,0.14642082,0.00835804,0.19026634,-0.00022119,-0.00021618,
 0.00096716,0.00009837,0.00014213,-0.00049881,0.00010765,-0.00024495,-0
 .00010770,-0.00353406,0.00215918,0.00574293,-0.00016259,-0.00036443,-0
 .00019679,-0.00044041,-0.00004954,0.00007921,0.00005850,0.00005045,0.0
 0002660,0.00004768,0.00010310,0.00002567,-0.00010840,-0.00002470,0.000
 26662,0.00002884,0.00023056,-0.00016543,0.00035472,-0.00010181,-0.0002
 3352,-0.00014674,0.00011658,-0.00001472,-0.07351208,0.04865011,0.06092
 386,0.00872307,-0.01425932,-0.01751835,0.07576969,-0.00077989,0.001148
 21,-0.00123636,0.00025488,0.00029961,0.00101671,-0.00046905,0.00027867
 ,0.00004904,0.00937887,-0.01870300,-0.02507297,-0.00001227,-0.00091374
 ,-0.00029900,-0.00009941,0.00039038,0.00003131,0.00007177,0.00013710,0
 .00004777,0.00007956,0.00013452,0.00006480,-0.00039497,0.00034422,-0.0
 0016858,-0.00030100,0.00016391,0.00060430,0.00053457,0.00033941,-0.000
 73013,-0.00005596,0.00004850,0.00006200,0.04770058,-0.13258869,-0.1140
 6755,-0.00022269,-0.00117710,-0.00016129,-0.05367501,0.14772288,-0.000
 20618,0.00043051,0.00105518,0.00018752,-0.00003850,0.00014152,0.000051
 81,-0.00001490,0.00025166,-0.00365080,0.00673607,0.00853225,0.00018571
 ,-0.00094171,-0.00050263,0.00011866,0.00031024,0.00027503,0.00003179,0
 .00009212,0.00002254,0.00011408,0.00020501,0.00010454,-0.00050926,0.00
 039224,-0.00015037,0.00029641,-0.00004858,0.00038198,-0.00062103,-0.00
 047300,0.00028916,0.00000410,-0.00006211,-0.00010232,0.06154502,-0.116
 04124,-0.20119464,0.00848282,-0.01155647,-0.01583353,-0.06859155,0.125
 58705,0.21617638,0.00045779,-0.00026406,0.00025510,-0.00003914,0.00004
 528,-0.00002714,0.00012507,-0.00011770,0.00017045,0.00497307,0.0011790
 3,-0.00238607,0.00009980,0.00057997,0.00030384,-0.00002946,-0.00031034
 ,-0.00022740,0.00001765,-0.00006039,-0.00001857,-0.00009046,-0.0001548
 8,-0.00006777,0.00022661,-0.00066353,0.00074332,-0.00134491,0.00024411
 ,-0.00079522,0.00297191,0.00120142,-0.00068630,0.00004647,-0.00005659,
 0.00032717,-0.20784220,-0.08347689,0.08163386,-0.01901734,-0.00956025,
 0.01036401,-0.00833233,-0.00397768,0.00322330,0.22708158,-0.00041277,0
 .00096991,-0.00133848,0.00004545,-0.00004855,-0.00001996,0.00028773,0.
 00009558,-0.00031037,-0.02216373,-0.01892545,0.01369007,0.00054927,-0.
 00117280,-0.00056630,-0.00000719,0.00036136,0.00019974,-0.00006505,0.0
 0016278,0.00003494,0.00000656,0.00014059,0.00014906,-0.00172411,0.0014
 5547,-0.00185181,0.00229434,-0.00030326,0.00182734,-0.00113479,-0.0033
 7275,0.00162934,0.00085530,0.00017554,0.00045335,-0.08990589,-0.088966
 36,0.04352258,-0.00117508,-0.00117089,0.00041284,0.01567331,0.00831202
 ,-0.00723530,0.09597488,0.10022493,0.00041170,-0.00044618,0.00070215,0
 .00014776,0.00008959,0.00004808,-0.00033639,-0.00012757,0.00015671,0.0
 0767948,0.00761978,-0.00623578,-0.00019855,-0.00002706,0.00003879,0.00
 003018,0.00000204,-0.00010916,0.00008225,0.00003401,0.00000849,0.00005
 661,-0.00002517,-0.00001649,0.00078031,-0.00050655,0.00099220,-0.00112
 673,0.00020738,-0.00082312,-0.00009449,0.00140432,-0.00024451,-0.00056
 792,0.00011979,-0.00021584,0.08455460,0.04157931,-0.08637002,-0.018723
 39,-0.01018653,0.00985052,0.02010557,0.01125169,-0.01013340,-0.0923212
 4,-0.05039330,0.09189625,0.00842315,-0.01331336,-0.01811001,-0.0022312
 2,-0.00023590,-0.00476389,0.00008079,-0.00023049,0.00043509,-0.0702770
 8,0.03418774,0.01880897,0.00059194,-0.00189348,-0.00075904,0.00003817,
 0.00027919,0.00020314,-0.00023309,0.00023616,-0.00001813,-0.00004101,0
 .00004550,0.00029896,-0.00297984,0.00338665,-0.00464826,0.01112546,0.0
 0243376,0.00385670,-0.02337310,0.00015281,0.01604882,0.00075789,0.0001
 2045,0.00052561,-0.00101033,0.00526692,0.00498592,-0.00001032,-0.00003
 777,0.00100172,0.00043626,0.00107796,-0.00067866,0.00055283,-0.0002679
 5,-0.00003249,0.53716203,-0.00058039,0.00075235,-0.00423130,0.00053996
 ,0.00074356,0.00139101,0.00005871,0.00066646,0.00127409,0.02658724,-0.
 12427136,-0.05424609,0.00068504,-0.00168507,-0.00060261,-0.00005704,0.
 00029220,0.00023809,-0.00016217,0.00017324,-0.00000490,-0.00005848,0.0
 0016347,0.00026379,-0.00245694,0.00225173,-0.00321288,0.00400511,-0.00
 013752,0.00381104,-0.00567776,-0.00090710,0.00233609,0.00065488,0.0002
 1937,0.00068080,0.01319075,-0.02533992,-0.02474866,-0.00053699,0.00141
 694,-0.00037428,0.00168083,-0.00519769,0.00187595,-0.00005121,0.002129
 77,-0.00061567,0.00423457,0.53994068,0.00744337,-0.01746215,-0.0248022
 0,-0.00311506,0.00015872,-0.00332205,0.00103141,-0.00048890,0.00106781
 ,0.01229349,-0.05923941,-0.14207701,0.00004160,0.00057117,0.00009480,-
 0.00000825,-0.00010640,-0.00007898,-0.00001362,-0.00002872,0.00001967,
 -0.00002804,-0.00006370,-0.00008774,0.00013375,-0.00042985,0.00052525,
 -0.00468148,-0.00205403,0.00046283,0.01280418,-0.00122634,-0.00977981,
 0.00087100,0.00018719,0.00156313,-0.00234408,0.00444955,0.00969402,-0.
 00011985,0.00073891,0.00034640,-0.00125998,0.00409950,-0.00002729,-0.0
 0016741,0.00035907,0.00011220,0.04049954,-0.04502862,0.51735375,0.0000
 2212,0.00114585,0.00160798,0.00045283,0.00015867,0.00047748,-0.0001240
 8,0.00002224,0.00000267,0.00660073,-0.00004378,0.00818855,-0.00015752,
 0.00035446,-0.00000823,0.00000120,-0.00005648,-0.00003305,0.00002609,-
 0.00001575,0.00001019,0.00004350,-0.00006507,-0.00005813,0.00032598,-0
 .00032174,0.00018236,-0.00024510,-0.00002802,-0.00033125,0.00098366,0.
 00014968,0.00014049,0.00023070,0.00018577,0.00021844,0.00025748,-0.000
 28751,0.00027575,0.00020500,-0.00015013,-0.00008533,0.00011538,-0.0001
 3857,0.00016457,-0.00012144,-0.00005156,-0.00013673,-0.17807289,-0.004
 03135,-0.13550091,0.19133415,0.00208423,-0.00252907,-0.00261178,-0.000
 59783,0.00041087,-0.00115628,-0.00000691,0.00027735,-0.00024172,-0.015
 96693,-0.00031217,-0.01414031,-0.00001484,0.00008052,0.00002142,-0.000
 00170,-0.00003509,-0.00004699,0.00002341,-0.00000537,0.00000028,-0.000
 01010,-0.00002317,0.00000073,-0.00001886,-0.00017031,0.00023992,0.0000
 9618,0.00006874,-0.00025066,-0.00024221,0.00007013,0.00015573,0.000240
 62,0.00000474,0.00031673,-0.00109486,0.00092324,-0.00015483,0.00050627
 ,-0.00035277,0.00010968,0.00012134,0.00031598,0.00022628,-0.00000004,-
 0.00007831,-0.00003510,-0.00333478,-0.04960394,-0.00394998,0.00346562,
 0.04983045,0.00289708,-0.00382906,-0.00256640,-0.00107359,-0.00030013,
 -0.00119086,0.00024058,-0.00006463,0.00046148,-0.01722414,0.00010495,-
 0.01984258,0.00006530,-0.00018333,0.00007199,0.00000970,0.00003090,-0.
 00000759,0.00000652,0.00000312,-0.00001458,-0.00005053,0.00005741,0.00
 004064,0.00054950,-0.00035335,0.00077400,-0.00059046,0.00081948,-0.000
 38607,-0.00073365,-0.00026155,-0.00031186,-0.00015190,-0.00009066,0.00
 020712,-0.00001302,0.00125819,0.00070559,0.00036638,-0.00063127,0.0005
 8030,0.00030567,0.00030583,0.00014461,0.00005356,0.00009878,0.00002364
 ,-0.13339375,-0.00405411,-0.18053870,0.14603266,0.00766189,0.19956896,
 0.00022863,0.00005780,-0.00049772,0.00016592,0.00018397,0.00004304,0.0
 0001685,0.00001144,-0.00003196,-0.00972678,0.00007368,0.00647610,0.000
 23961,-0.00036675,-0.00012641,-0.00001007,0.00006825,0.00005434,-0.000
 04073,0.00003250,-0.00000087,-0.00003845,0.00004848,0.00007274,-0.0003
 6225,0.00030220,-0.00043290,0.00021740,-0.00024272,0.00040359,0.000731
 52,0.00136136,0.00088654,0.00048842,-0.00000895,0.00045164,0.00060767,
 -0.00061609,-0.00020151,-0.00006734,-0.00012487,0.00010407,0.00034030,
 0.00021538,-0.00012394,0.00008456,0.00084778,-0.00015383,-0.23066138,-
 0.06734701,0.08588844,-0.01935211,-0.00710026,0.01008282,0.25323013,0.
 00010995,0.00037897,0.00102749,0.00001680,-0.00004755,0.00028091,-0.00
 011076,-0.00006685,-0.00004489,0.01754936,0.00362517,-0.00935918,-0.00
 023505,0.00048694,0.00020068,-0.00001259,-0.00008217,-0.00006105,0.000
 04898,-0.00004683,0.00000222,0.00000840,-0.00002533,-0.00007645,0.0009
 7291,-0.00076764,0.00132030,-0.00193889,0.00021468,-0.00118071,0.00307
 282,0.00037341,-0.00197196,-0.00040048,-0.00001217,0.00002154,-0.00032
 065,0.00133563,0.00023800,0.00002293,-0.00000254,-0.00013858,-0.000375
 83,0.00018028,0.00014811,-0.00037336,-0.00042265,0.00007644,-0.0626147
 9,-0.06745252,0.02995618,-0.00007369,-0.00106140,0.00023919,0.07142440
 ,0.07171926,0.00013175,0.00038334,0.00166217,-0.00036924,-0.00019571,0
 .00031409,0.00014962,-0.00002073,-0.00001833,0.02122666,0.00383107,-0.
 01408912,-0.00028865,0.00065938,0.00027529,-0.00000063,-0.00010340,-0.
 00007687,0.00008325,-0.00007413,-0.00000320,0.00002732,-0.00003553,-0.
 00010772,0.00125125,-0.00116358,0.00158678,-0.00207207,0.00048657,-0.0
 0142682,0.00243574,-0.00099457,-0.00195411,-0.00076955,-0.00035698,-0.
 00045363,-0.00067220,0.00112356,0.00045899,-0.00010110,-0.00004383,-0.
 00004384,-0.00036085,0.00003696,0.00000976,-0.00022326,-0.00066360,0.0
 0041567,0.08983882,0.03367477,-0.08611034,-0.02014857,-0.00736023,0.01
 044122,-0.10049700,-0.03234317,0.09456619,-0.00021629,-0.00078080,-0.0
 0011865,-0.00015251,-0.00000995,-0.00001983,0.00037197,-0.00013009,0.0
 0001670,-0.00376380,0.00985192,-0.00304278,0.00000270,0.00013679,0.000
 12000,-0.00000239,-0.00004034,-0.00004023,0.00004564,-0.00004094,-0.00
 000773,-0.00001268,-0.00001320,-0.00000989,-0.00010689,-0.00016555,-0.
 00003760,0.00004443,-0.00050223,-0.00015080,0.00062636,0.00087796,-0.0
 0039174,-0.00003187,-0.00016733,-0.00004943,0.00002465,0.00091055,0.00
 190194,0.00027422,-0.00038569,0.00022082,0.00037733,0.00081292,-0.0000
 2438,0.00017992,0.00037349,-0.00015672,-0.05027826,0.02932226,-0.01376
 810,-0.00252567,0.02185166,-0.00737874,0.00390813,-0.02677047,0.010358
 71,0.05123500,0.00001568,0.00066638,0.00125917,0.00010450,0.00051983,0
 .00002234,-0.00039970,0.00044293,-0.00088047,0.00280196,-0.01955923,0.
 00850997,-0.00015243,-0.00007481,-0.00003500,-0.00000410,0.00002196,0.
 00002904,-0.00001020,0.00002320,0.00001090,0.00003054,0.00002445,-0.00
 001035,0.00031875,-0.00002689,0.00037166,-0.00009579,0.00056867,-0.000
 36004,-0.00024680,-0.00033455,0.00015350,0.00002015,-0.00003269,-0.000
 00838,0.00111755,-0.00120394,-0.00462155,-0.00006313,0.00024453,0.0000
 1995,0.00038417,-0.00123546,0.00040823,-0.00015779,0.00043306,-0.00002
 121,0.03050680,-0.27415466,0.08955780,-0.00021864,0.00218959,-0.000811
 66,0.00117941,-0.00832669,0.00315980,-0.03513093,0.29981431,0.00023298
 ,-0.00044216,0.00147257,0.00015531,0.00020505,0.00026293,-0.00009851,0
 .00029221,-0.00028172,0.00339040,-0.02355317,0.00954676,0.00001926,-0.
 00014783,-0.00008406,-0.00001123,0.00001883,0.00001938,-0.00000819,0.0
 0002526,0.00000288,0.00000117,0.00002177,0.00002776,-0.00023386,0.0001
 7558,-0.00002931,0.00031800,0.00013581,-0.00003526,-0.00071613,-0.0004
 6721,0.00059139,-0.00002491,0.00009444,-0.00006848,0.00130946,-0.00266
 292,-0.00382201,0.00023277,0.00002347,0.00002170,0.00050442,-0.0014210
 7,0.00055956,-0.00015423,0.00000200,-0.00009636,-0.01409905,0.09157349
 ,-0.08441575,-0.00099894,0.02121522,-0.00816090,-0.00239718,0.01166493
 ,-0.00544619,0.01257846,-0.09675369,0.08993512\\-0.00000030,-0.0000005
 7,0.00000020,0.00000019,0.00000009,-0.00000020,-0.00000007,-0.00000010
 ,-0.00000002,0.00000078,-0.00000043,-0.00000098,-0.00000023,-0.0000004
 0,0.00000091,-0.00000107,-0.00000067,0.00000035,0.00000013,0.00000030,
 0.00000001,-0.00000024,-0.00000004,-0.00000006,0.00000083,-0.00000115,
 0.00000308,-0.00000254,0.00000206,-0.00000303,-0.00000081,0.00000036,0
 .00000034,0.00000005,-0.00000029,-0.00000027,0.00000080,0.00000044,-0.
 00000061,0.00000163,0.00000011,0.00000008,0.00000015,0.00000012,0.0000
 0015,0.00000018,-0.00000019,-0.00000009,0.00000076,0.00000003,-0.00000
 011,-0.00000043,-0.00000051,0.00000068,-0.00000051,0.00000062,-0.00000
 062,0.00000071,0.00000022,0.00000017\\\@


 MARY HAD A LITTLE LAMB
      HIS FEET WERE BLACK AS SOOT,
           AND EVERYWHERE THAT MARY WENT
                HIS SOOTY FOOT HE PUT.

                    -- NONAME
 Job cpu time:       4 days 14 hours 58 minutes 46.9 seconds.
 Elapsed time:       0 days  2 hours 48 minutes 19.5 seconds.
 File lengths (MBytes):  RWF= 138775 Int=      0 D2E=      0 Chk=     25 Scr=      1
 Normal termination of Gaussian 16 at Mon Jun 10 22:27:56 2019.
