 Entering Gaussian System, Link 0=g16
 Initial command:
 /ichec/packages/gaussian/16b01/l1.exe "/localscratch/346541/Gau-39321.inp" -scrdir="/localscratch/346541/"
 Entering Link 1 = /ichec/packages/gaussian/16b01/l1.exe PID=     41654.
  
 Copyright (c) 1988-2017, Gaussian, Inc.  All Rights Reserved.
  
 This is part of the Gaussian(R) 16 program.  It is based on
 the Gaussian(R) 09 system (copyright 2009, Gaussian, Inc.),
 the Gaussian(R) 03 system (copyright 2003, Gaussian, Inc.),
 the Gaussian(R) 98 system (copyright 1998, Gaussian, Inc.),
 the Gaussian(R) 94 system (copyright 1995, Gaussian, Inc.),
 the Gaussian 92(TM) system (copyright 1992, Gaussian, Inc.),
 the Gaussian 90(TM) system (copyright 1990, Gaussian, Inc.),
 the Gaussian 88(TM) system (copyright 1988, Gaussian, Inc.),
 the Gaussian 86(TM) system (copyright 1986, Carnegie Mellon
 University), and the Gaussian 82(TM) system (copyright 1983,
 Carnegie Mellon University). Gaussian is a federally registered
 trademark of Gaussian, Inc.
  
 This software contains proprietary and confidential information,
 including trade secrets, belonging to Gaussian, Inc.
  
 This software is provided under written license and may be
 used, copied, transmitted, or stored only in accord with that
 written license.
  
 The following legend is applicable only to US Government
 contracts under FAR:
  
                    RESTRICTED RIGHTS LEGEND
  
 Use, reproduction and disclosure by the US Government is
 subject to restrictions as set forth in subparagraphs (a)
 and (c) of the Commercial Computer Software - Restricted
 Rights clause in FAR 52.227-19.
  
 Gaussian, Inc.
 340 Quinnipiac St., Bldg. 40, Wallingford CT 06492
  
  
 ---------------------------------------------------------------
 Warning -- This program may not be used in any manner that
 competes with the business of Gaussian, Inc. or will provide
 assistance to any competitor of Gaussian, Inc.  The licensee
 of this program is prohibited from giving any competitor of
 Gaussian, Inc. access to this program.  By using this program,
 the user acknowledges that Gaussian, Inc. is engaged in the
 business of creating and licensing software in the field of
 computational chemistry and represents and warrants to the
 licensee that it is not a competitor of Gaussian, Inc. and that
 it will not use this program in any manner prohibited above.
 ---------------------------------------------------------------
  

 Cite this work as:
 Gaussian 16, Revision B.01,
 M. J. Frisch, G. W. Trucks, H. B. Schlegel, G. E. Scuseria, 
 M. A. Robb, J. R. Cheeseman, G. Scalmani, V. Barone, 
 G. A. Petersson, H. Nakatsuji, X. Li, M. Caricato, A. V. Marenich, 
 J. Bloino, B. G. Janesko, R. Gomperts, B. Mennucci, H. P. Hratchian, 
 J. V. Ortiz, A. F. Izmaylov, J. L. Sonnenberg, D. Williams-Young, 
 F. Ding, F. Lipparini, F. Egidi, J. Goings, B. Peng, A. Petrone, 
 T. Henderson, D. Ranasinghe, V. G. Zakrzewski, J. Gao, N. Rega, 
 G. Zheng, W. Liang, M. Hada, M. Ehara, K. Toyota, R. Fukuda, 
 J. Hasegawa, M. Ishida, T. Nakajima, Y. Honda, O. Kitao, H. Nakai, 
 T. Vreven, K. Throssell, J. A. Montgomery, Jr., J. E. Peralta, 
 F. Ogliaro, M. J. Bearpark, J. J. Heyd, E. N. Brothers, K. N. Kudin, 
 V. N. Staroverov, T. A. Keith, R. Kobayashi, J. Normand, 
 K. Raghavachari, A. P. Rendell, J. C. Burant, S. S. Iyengar, 
 J. Tomasi, M. Cossi, J. M. Millam, M. Klene, C. Adamo, R. Cammi, 
 J. W. Ochterski, R. L. Martin, K. Morokuma, O. Farkas, 
 J. B. Foresman, and D. J. Fox, Gaussian, Inc., Wallingford CT, 2016.
 
 ******************************************
 Gaussian 16:  ES64L-G16RevB.01 20-Dec-2017
                10-Jun-2019 
 ******************************************
 %mem=80GB
 %nproc=40
 Will use up to   40 processors via shared memory.
 ----------------------------------------------------------------------
 # opt=(calcfc,ts,noeigentest,maxcyc=500) freq=noraman uB2PLYPD3/cc-pvt
 z
 ----------------------------------------------------------------------
 1/5=1,6=500,10=4,11=1,18=20,38=1/1,3;
 2/9=110,12=2,17=6,18=5,40=1/2;
 3/5=16,6=1,11=2,25=1,30=1,71=2,74=-60,116=2,140=1/1,2,3;
 4//1;
 5/5=2,38=5/2;
 8/6=3,8=1,10=1,19=11,30=-1/1;
 9/15=3,16=-3/6;
 11/6=1,8=1,15=11,17=12,24=-1,27=1,28=-2,29=300,32=6,42=3/1,2,10;
 10/6=2,21=1/2;
 8/6=4,8=1,10=1,19=11,30=-1/11,4;
 10/5=1,20=4/2;
 11/12=2,14=11,16=1,17=2,28=-2,42=3,76=2/2,10,12;
 6/7=2,8=2,9=2,10=2/1;
 7/10=1,12=2,25=1,44=2/1,2,3,16;
 1/5=1,6=500,10=4,11=1,18=20/3(2);
 2/9=110/2;
 99//99;
 2/9=110/2;
 3/5=16,6=1,11=2,25=1,30=1,71=1,74=-60,116=2/1,2,3;
 4/5=5,16=3,69=1/1;
 5/5=2,38=5/2;
 8/6=4,10=1/1;
 9/15=2,16=-3/6;
 10/5=1/2;
 7/12=2/1,2,3,16;
 1/5=1,6=500,11=1,18=20/3(-8);
 2/9=110/2;
 6/7=2,8=2,9=2,10=2/1;
 99/9=10/99;
 -------------------
 Title Card Required
 -------------------
 Symbolic Z-matrix:
 Charge =  0 Multiplicity = 2
 C                    -0.91482  -1.42071   0.01436 
 H                    -0.84225  -2.01132   0.9223 
 H                    -1.31222  -1.96772  -0.8362 
 C                     1.81119   1.16966  -0.2898 
 H                     0.86503   1.33061  -0.80713 
 H                     1.98511   1.97136   0.42505 
 H                     2.62785   1.11723  -1.00957 
 O                     1.76207  -0.02204   0.47522 
 O                     1.56268  -1.07803  -0.37038 
 H                     0.35108  -1.29018  -0.28267 
 C                    -1.37471  -0.0514    0.17647 
 C                    -1.28551   0.57684   1.35859 
 H                    -1.58338   1.61104   1.47055 
 H                    -0.91285   0.06478   2.23539 
 C                    -1.86835   0.64739  -1.05931 
 H                    -2.78599   0.18012  -1.42068 
 H                    -2.06501   1.70174  -0.87528 
 H                    -1.13226   0.56213  -1.86228 
 
 Add virtual bond connecting atoms H10        and O9         Dist= 2.33D+00.
 Add virtual bond connecting atoms H10        and C1         Dist= 2.47D+00.

 GradGradGradGradGradGradGradGradGradGradGradGradGradGradGradGradGradGrad
 Berny optimization.
 Initialization pass.
                           ----------------------------
                           !    Initial Parameters    !
                           ! (Angstroms and Degrees)  !
 --------------------------                            --------------------------
 ! Name  Definition              Value          Derivative Info.                !
 --------------------------------------------------------------------------------
 ! R1    R(1,2)                  1.0856         calculate D2E/DX2 analytically  !
 ! R2    R(1,3)                  1.0865         calculate D2E/DX2 analytically  !
 ! R3    R(1,10)                 1.3068         calculate D2E/DX2 analytically  !
 ! R4    R(1,11)                 1.4535         calculate D2E/DX2 analytically  !
 ! R5    R(4,5)                  1.0903         calculate D2E/DX2 analytically  !
 ! R6    R(4,6)                  1.0881         calculate D2E/DX2 analytically  !
 ! R7    R(4,7)                  1.0898         calculate D2E/DX2 analytically  !
 ! R8    R(4,8)                  1.417          calculate D2E/DX2 analytically  !
 ! R9    R(8,9)                  1.3674         calculate D2E/DX2 analytically  !
 ! R10   R(9,10)                 1.2332         calculate D2E/DX2 analytically  !
 ! R11   R(11,12)                1.3417         calculate D2E/DX2 analytically  !
 ! R12   R(11,15)                1.503          calculate D2E/DX2 analytically  !
 ! R13   R(12,13)                1.082          calculate D2E/DX2 analytically  !
 ! R14   R(12,14)                1.0816         calculate D2E/DX2 analytically  !
 ! R15   R(15,16)                1.0913         calculate D2E/DX2 analytically  !
 ! R16   R(15,17)                1.0882         calculate D2E/DX2 analytically  !
 ! R17   R(15,18)                1.0926         calculate D2E/DX2 analytically  !
 ! A1    A(2,1,3)              113.9081         calculate D2E/DX2 analytically  !
 ! A2    A(2,1,10)             100.3519         calculate D2E/DX2 analytically  !
 ! A3    A(2,1,11)             116.1299         calculate D2E/DX2 analytically  !
 ! A4    A(3,1,10)             103.1            calculate D2E/DX2 analytically  !
 ! A5    A(3,1,11)             116.4772         calculate D2E/DX2 analytically  !
 ! A6    A(10,1,11)            103.7532         calculate D2E/DX2 analytically  !
 ! A7    A(5,4,6)              109.9786         calculate D2E/DX2 analytically  !
 ! A8    A(5,4,7)              110.1217         calculate D2E/DX2 analytically  !
 ! A9    A(5,4,8)              110.5016         calculate D2E/DX2 analytically  !
 ! A10   A(6,4,7)              110.4602         calculate D2E/DX2 analytically  !
 ! A11   A(6,4,8)              105.6935         calculate D2E/DX2 analytically  !
 ! A12   A(7,4,8)              110.0038         calculate D2E/DX2 analytically  !
 ! A13   A(4,8,9)              108.7029         calculate D2E/DX2 analytically  !
 ! A14   A(8,9,10)             103.423          calculate D2E/DX2 analytically  !
 ! A15   A(1,11,12)            121.2213         calculate D2E/DX2 analytically  !
 ! A16   A(1,11,15)            116.756          calculate D2E/DX2 analytically  !
 ! A17   A(12,11,15)           121.9079         calculate D2E/DX2 analytically  !
 ! A18   A(11,12,13)           121.36           calculate D2E/DX2 analytically  !
 ! A19   A(11,12,14)           121.0292         calculate D2E/DX2 analytically  !
 ! A20   A(13,12,14)           117.6108         calculate D2E/DX2 analytically  !
 ! A21   A(11,15,16)           110.4471         calculate D2E/DX2 analytically  !
 ! A22   A(11,15,17)           111.7623         calculate D2E/DX2 analytically  !
 ! A23   A(11,15,18)           110.285          calculate D2E/DX2 analytically  !
 ! A24   A(16,15,17)           108.5956         calculate D2E/DX2 analytically  !
 ! A25   A(16,15,18)           106.8406         calculate D2E/DX2 analytically  !
 ! A26   A(17,15,18)           108.7616         calculate D2E/DX2 analytically  !
 ! A27   L(1,10,9,5,-1)        177.4372         calculate D2E/DX2 analytically  !
 ! A28   L(1,10,9,5,-2)        169.812          calculate D2E/DX2 analytically  !
 ! D1    D(2,1,9,8)            -82.5141         calculate D2E/DX2 analytically  !
 ! D2    D(3,1,9,8)            159.1951         calculate D2E/DX2 analytically  !
 ! D3    D(11,1,9,8)            36.2599         calculate D2E/DX2 analytically  !
 ! D4    D(2,1,11,12)           21.3894         calculate D2E/DX2 analytically  !
 ! D5    D(2,1,11,15)         -162.4336         calculate D2E/DX2 analytically  !
 ! D6    D(3,1,11,12)          159.8614         calculate D2E/DX2 analytically  !
 ! D7    D(3,1,11,15)          -23.9616         calculate D2E/DX2 analytically  !
 ! D8    D(10,1,11,12)         -87.644          calculate D2E/DX2 analytically  !
 ! D9    D(10,1,11,15)          88.5329         calculate D2E/DX2 analytically  !
 ! D10   D(5,4,8,9)             61.8725         calculate D2E/DX2 analytically  !
 ! D11   D(6,4,8,9)           -179.1835         calculate D2E/DX2 analytically  !
 ! D12   D(7,4,8,9)            -59.9291         calculate D2E/DX2 analytically  !
 ! D13   D(4,8,9,10)           -98.9108         calculate D2E/DX2 analytically  !
 ! D14   D(1,11,12,13)         177.0486         calculate D2E/DX2 analytically  !
 ! D15   D(1,11,12,14)          -3.0022         calculate D2E/DX2 analytically  !
 ! D16   D(15,11,12,13)          1.0703         calculate D2E/DX2 analytically  !
 ! D17   D(15,11,12,14)       -178.9805         calculate D2E/DX2 analytically  !
 ! D18   D(1,11,15,16)          66.6574         calculate D2E/DX2 analytically  !
 ! D19   D(1,11,15,17)        -172.3262         calculate D2E/DX2 analytically  !
 ! D20   D(1,11,15,18)         -51.2107         calculate D2E/DX2 analytically  !
 ! D21   D(12,11,15,16)       -117.1939         calculate D2E/DX2 analytically  !
 ! D22   D(12,11,15,17)          3.8225         calculate D2E/DX2 analytically  !
 ! D23   D(12,11,15,18)        124.938          calculate D2E/DX2 analytically  !
 --------------------------------------------------------------------------------
 Trust Radius=3.00D-01 FncErr=1.00D-07 GrdErr=1.00D-07 EigMax=2.50D+02 EigMin=1.00D-04
 Number of steps in this run=    108 maximum allowed number of steps=    108.
 Search for a saddle point of order  1.
 GradGradGradGradGradGradGradGradGradGradGradGradGradGradGradGradGradGrad

                          Input orientation:                          
 ---------------------------------------------------------------------
 Center     Atomic      Atomic             Coordinates (Angstroms)
 Number     Number       Type             X           Y           Z
 ---------------------------------------------------------------------
      1          6           0       -0.914819   -1.420711    0.014359
      2          1           0       -0.842251   -2.011322    0.922296
      3          1           0       -1.312219   -1.967717   -0.836197
      4          6           0        1.811192    1.169662   -0.289802
      5          1           0        0.865030    1.330605   -0.807130
      6          1           0        1.985113    1.971359    0.425052
      7          1           0        2.627849    1.117232   -1.009565
      8          8           0        1.762071   -0.022038    0.475216
      9          8           0        1.562683   -1.078025   -0.370376
     10          1           0        0.351076   -1.290179   -0.282673
     11          6           0       -1.374714   -0.051398    0.176465
     12          6           0       -1.285505    0.576844    1.358588
     13          1           0       -1.583379    1.611039    1.470552
     14          1           0       -0.912845    0.064778    2.235389
     15          6           0       -1.868346    0.647389   -1.059312
     16          1           0       -2.785987    0.180120   -1.420681
     17          1           0       -2.065006    1.701741   -0.875276
     18          1           0       -1.132264    0.562132   -1.862277
 ---------------------------------------------------------------------
                    Distance matrix (angstroms):
                    1          2          3          4          5
     1  C    0.000000
     2  H    1.085558   0.000000
     3  H    1.086549   1.820733   0.000000
     4  C    3.772755   4.316086   4.460649   0.000000
     5  H    3.378231   4.132094   3.952238   1.090300   0.000000
     6  H    4.481564   4.909479   5.289562   1.088110   1.784215
     7  H    4.476614   5.055841   5.007105   1.089833   1.787187
     8  O    3.055228   3.307510   3.867393   1.416974   2.068511
     9  O    2.530508   2.885438   3.045259   2.262818   2.545383
    10  H    1.306812   1.842831   1.879361   2.860561   2.721711
    11  C    1.453547   2.163581   2.168333   3.443601   2.809599
    12  C    2.436101   2.661847   3.360444   3.557830   3.143770
    13  H    3.429137   3.737828   4.266393   3.849256   3.355769
    14  H    2.672013   2.457517   3.704750   3.875272   3.744340
    15  C    2.517741   3.471078   2.682878   3.795249   2.828732
    16  H    2.850135   3.751009   2.669610   4.836542   3.876853
    17  H    3.444428   4.302701   3.746083   3.956109   2.954234
    18  H    2.738743   3.802712   2.735939   3.392006   2.386015
                    6          7          8          9         10
     6  H    0.000000
     7  H    1.789069   0.000000
     8  O    2.006463   2.062058   0.000000
     9  O    3.179606   2.522359   1.367439   0.000000
    10  H    3.715990   3.392299   2.042911   1.233164   0.000000
    11  C    3.929603   4.335075   3.151116   3.159319   2.173416
    12  C    3.676017   4.605921   3.229044   3.720226   2.976224
    13  H    3.735912   4.912155   3.853527   4.529656   3.902945
    14  H    3.912867   4.916696   3.203267   3.771505   3.126346
    15  C    4.336517   4.520951   3.997854   3.901749   3.046830
    16  H    5.420209   5.509702   4.931544   4.647257   3.646643
    17  H    4.262278   4.731022   4.409281   4.598059   3.891043
    18  H    4.115317   3.895344   3.765940   3.489788   2.850702
                   11         12         13         14         15
    11  C    0.000000
    12  C    1.341664   0.000000
    13  H    2.117050   1.082046   0.000000
    14  H    2.113288   1.081604   1.850815   0.000000
    15  C    1.503037   2.488156   2.722139   3.479579   0.000000
    16  H    2.143867   3.183264   3.442822   4.109600   1.091326
    17  H    2.157813   2.619764   2.396477   3.699103   1.088211
    18  H    2.142818   3.224542   3.522990   4.133567   1.092629
                   16         17         18
    16  H    0.000000
    17  H    1.769918   0.000000
    18  H    1.753779   1.772819   0.000000
 Stoichiometry    C5H11O2(2)
 Framework group  C1[X(C5H11O2)]
 Deg. of freedom    48
 Full point group                 C1      NOp   1
 Largest Abelian subgroup         C1      NOp   1
 Largest concise Abelian subgroup C1      NOp   1
                         Standard orientation:                         
 ---------------------------------------------------------------------
 Center     Atomic      Atomic             Coordinates (Angstroms)
 Number     Number       Type             X           Y           Z
 ---------------------------------------------------------------------
      1          6           0        0.914819    1.420711    0.014359
      2          1           0        0.842251    2.011322    0.922296
      3          1           0        1.312219    1.967717   -0.836197
      4          6           0       -1.811192   -1.169662   -0.289802
      5          1           0       -0.865030   -1.330605   -0.807130
      6          1           0       -1.985113   -1.971359    0.425052
      7          1           0       -2.627849   -1.117232   -1.009565
      8          8           0       -1.762071    0.022038    0.475216
      9          8           0       -1.562683    1.078025   -0.370376
     10          1           0       -0.351076    1.290179   -0.282673
     11          6           0        1.374714    0.051398    0.176465
     12          6           0        1.285505   -0.576844    1.358588
     13          1           0        1.583379   -1.611039    1.470552
     14          1           0        0.912845   -0.064778    2.235389
     15          6           0        1.868346   -0.647389   -1.059312
     16          1           0        2.785987   -0.180120   -1.420681
     17          1           0        2.065006   -1.701741   -0.875276
     18          1           0        1.132264   -0.562132   -1.862277
 ---------------------------------------------------------------------
 Rotational constants (GHZ):           3.3612061           1.6136976           1.4686100
 Standard basis: CC-pVTZ (5D, 7F)
 There are   410 symmetry adapted cartesian basis functions of A   symmetry.
 There are   364 symmetry adapted basis functions of A   symmetry.
   364 basis functions,   551 primitive gaussians,   410 cartesian basis functions
    29 alpha electrons       28 beta electrons
       nuclear repulsion energy       318.4983353170 Hartrees.
 NAtoms=   18 NActive=   18 NUniq=   18 SFac= 1.00D+00 NAtFMM=   60 NAOKFM=F Big=F
 Integral buffers will be    131072 words long.
 Raffenetti 2 integral format.
 Two-electron integral symmetry is turned on.
 Nuclear repulsion after empirical dispersion term =      318.4877211188 Hartrees.
 One-electron integrals computed using PRISM.
 NBasis=   364 RedAO= T EigKep=  3.46D-04  NBF=   364
 NBsUse=   364 1.00D-06 EigRej= -1.00D+00 NBFU=   364
 ExpMin= 1.03D-01 ExpMax= 1.53D+04 ExpMxC= 5.22D+02 IAcc=3 IRadAn=         5 AccDes= 0.00D+00
 Harris functional with IExCor=  419 and IRadAn=       5 diagonalized for initial guess.
 HarFok:  IExCor=  419 AccDes= 0.00D+00 IRadAn=         5 IDoV= 1 UseB2=F ITyADJ=14
 ICtDFT=  3500011 ScaDFX=  1.000000  1.000000  1.000000  1.000000
 FoFCou: FMM=F IPFlag=           0 FMFlag=      100000 FMFlg1=           0
         NFxFlg=           0 DoJE=T BraDBF=F KetDBF=T FulRan=T
         wScrn=  0.000000 ICntrl=       500 IOpCl=  0 I1Cent=   200000004 NGrid=           0
         NMat0=    1 NMatS0=      1 NMatT0=    0 NMatD0=    1 NMtDS0=    0 NMtDT0=    0
 Petite list used in FoFCou.
 Initial guess <Sx>= 0.0000 <Sy>= 0.0000 <Sz>= 0.5000 <S**2>= 0.7500 S= 0.5000
 Requested convergence on RMS density matrix=1.00D-08 within 128 cycles.
 Requested convergence on MAX density matrix=1.00D-06.
 Requested convergence on             energy=1.00D-06.
 No special actions if energy rises.
 Integral accuracy reduced to 1.0D-05 until final iterations.
 Initial convergence to 1.0D-05 achieved.  Increase integral accuracy.
 SCF Done:  E(UB2PLYPD3) =  -346.817141759     A.U. after   21 cycles
            NFock= 21  Conv=0.10D-07     -V/T= 2.0041
 <Sx>= 0.0000 <Sy>= 0.0000 <Sz>= 0.5000 <S**2>= 0.8067 S= 0.5279
 <L.S>=  0.00000000000    
 Annihilation of the first spin contaminant:
 S**2 before annihilation     0.8067,   after     0.7516
 DoSCS=T DFT=T ScalE2(SS,OS)=  0.270000  0.270000
 ExpMin= 1.03D-01 ExpMax= 1.53D+04 ExpMxC= 5.22D+02 IAcc=3 IRadAn=         5 AccDes= 0.00D+00
 HarFok:  IExCor=  205 AccDes= 0.00D+00 IRadAn=         5 IDoV=-2 UseB2=F ITyADJ=14
 ICtDFT= 12500011 ScaDFX=  1.000000  1.000000  1.000000  1.000000
 Range of M.O.s used for correlation:     8   364
 NBasis=   364 NAE=    29 NBE=    28 NFC=     7 NFV=     0
 NROrb=    357 NOA=    22 NOB=    21 NVA=   335 NVB=   336

 **** Warning!!: The largest alpha MO coefficient is  0.12331724D+02


 **** Warning!!: The largest beta MO coefficient is  0.13014803D+02

 DoSCS=T DFT=T ScalE2(SS,OS)=  0.270000  0.270000
 Disk-based method using ON**2 memory for 22 occupieds at a time.
 Permanent disk used for amplitudes=   135386230 words.
 Estimated scratch disk usage=  2681291872 words.
 Actual    scratch disk usage=  2593001568 words.
 JobTyp=2 Pass  1:  I=   8 to  29 NPSUse= 40 ParTrn=T ParDer=T DoDerP=T.
 (rs|ai) integrals will be sorted in core.
 Actual    scratch disk usage=  2593001568 words.
 JobTyp=3 Pass  1:  I=   8 to  28 NPSUse= 40 ParTrn=T ParDer=T DoDerP=T.
 (rs|ai) integrals will be sorted in core.
 Spin components of T(2) and E(2):
     alpha-alpha T2 =       0.7529000631D-01 E2=     -0.5369823385D-01
     alpha-beta  T2 =       0.4604608301D+00 E2=     -0.3343704208D+00
     beta-beta   T2 =       0.8524464851D-01 E2=     -0.5363730863D-01
 (S**2,0)=  0.80667D+00           (S**2,1)=  0.75447D+00
 Scaling Projection term by:   0.270000
 E(PUHF)=      -0.34682661982D+03        E(PMP2)=      -0.34726024737D+03
 E2(B2PLYPD3) =    -0.4417059633D+00 E(B2PLYPD3) =    -0.34725884772247D+03
 G2DrvN: will do    19 centers at a time, making    1 passes.
 Calling FoFCou, ICntrl=  3107 FMM=F I1Cent=   0 AccDes= 0.00D+00.
 End of G2Drv F.D. properties file   721 does not exist.
 End of G2Drv F.D. properties file   722 does not exist.
 End of G2Drv F.D. properties file   788 does not exist.
          IDoAtm=111111111111111111
          Differentiating once with respect to electric field.
                with respect to dipole field.
          Differentiating once with respect to nuclear coordinates.
 Keep R1 and R2 ints in memory in canonical form, NReq=4459304617.
          There are    57 degrees of freedom in the 1st order CPHF.  IDoFFX=6 NUNeed=    57.
     54 vectors produced by pass  0 Test12= 3.35D-14 1.75D-09 XBig12= 1.05D+02 6.93D+00.
 AX will form    54 AO Fock derivatives at one time.
     54 vectors produced by pass  1 Test12= 3.35D-14 1.75D-09 XBig12= 1.17D+01 4.95D-01.
     54 vectors produced by pass  2 Test12= 3.35D-14 1.75D-09 XBig12= 8.95D-01 1.70D-01.
     54 vectors produced by pass  3 Test12= 3.35D-14 1.75D-09 XBig12= 1.46D-02 1.42D-02.
     54 vectors produced by pass  4 Test12= 3.35D-14 1.75D-09 XBig12= 1.89D-04 1.33D-03.
     54 vectors produced by pass  5 Test12= 3.35D-14 1.75D-09 XBig12= 2.57D-06 1.49D-04.
     54 vectors produced by pass  6 Test12= 3.35D-14 1.75D-09 XBig12= 2.14D-08 1.65D-05.
     24 vectors produced by pass  7 Test12= 3.35D-14 1.75D-09 XBig12= 1.29D-10 1.24D-06.
      3 vectors produced by pass  8 Test12= 3.35D-14 1.75D-09 XBig12= 1.01D-12 7.88D-08.
      2 vectors produced by pass  9 Test12= 3.35D-14 1.75D-09 XBig12= 1.00D-14 8.22D-09.
 InvSVY:  IOpt=1 It=  1 EMax= 5.33D-15
 Solved reduced A of dimension   407 with    57 vectors.
 End of Minotr F.D. properties file   721 does not exist.
 End of Minotr F.D. properties file   722 does not exist.
 End of Minotr F.D. properties file   788 does not exist.
 MDV= 10737418240.
 DoSCS=T DFT=T ScalE2(SS,OS)=  0.270000  0.270000
 Form MO integral derivatives with frozen-active canonical formalism.
 Discarding MO integrals.
 Reordered first order wavefunction length =    545006183
 In DefCFB: NBatch=  1 ICI= 29 ICA=336 LFMax= 68
            Large arrays: LIAPS= 11415666080 LIARS=  1957569600 words.
 In DefCFB: NBatch=  1 ICI= 29 ICA=336 LFMax= 68
            Large arrays: LIAPS= 11415666080 LIARS=  1957569600 words.
 Semi-Direct transformation.
 ModeAB=           4 MOrb=            29 LenV=   10733526409
 LASXX=    664627481 LTotXX=   664627481 LenRXX=  1338891981
 LTotAB=   674264500 MaxLAS=   843181612 LenRXY=           0
 NonZer=  2003519462 LenScr=  3017065472 LnRSAI=   843181612
 LnScr1=  1269732352 LExtra=           0 Total=   6468871417
 MaxDsk=          -1 SrtSym=           T ITran=            4
 JobTyp=1 Pass  1:  I=   1 to  29.
 (rs|ai) integrals will be sorted in core.
 ModeAB=           4 MOrb=            28 LenV=   10733526409
 LASXX=    642894399 LTotXX=   642894399 LenRXX=  1195226319
 LTotAB=   552331920 MaxLAS=   814106384 LenRXY=           0
 NonZer=  1838120718 LenScr=  2767993856 LnRSAI=   814106384
 LnScr1=  1225949184 LExtra=           0 Total=   6003275743
 MaxDsk=          -1 SrtSym=           T ITran=            4
 JobTyp=2 Pass  1:  I=   1 to  28.
 (rs|ai) integrals will be sorted in core.
 SymMOI:  orbitals are not symmetric.
 DoSCS=T DFT=T ScalE2(SS,OS)=  0.270000  0.270000
 Spin components of T(2) and E(2):
     alpha-alpha T2 =       0.7529000631D-01 E2=     -0.5369823385D-01
     alpha-beta  T2 =       0.4604608301D+00 E2=     -0.3343704208D+00
     beta-beta   T2 =       0.8524464851D-01 E2=     -0.5363730863D-01
 E2(B2PLYPD3) =    -0.4417059633D+00 E(B2PLYPD3) =    -0.34725884772247D+03
 (S**2,0)=  0.80667D+00           (S**2,1)=  0.75447D+00
 Scaling Projection term by:   0.270000
 E(PUHF)=      -0.34682661982D+03        E(PMP2)=      -0.34726024737D+03
          IDoAtm=111111111111111111
          Differentiating once with respect to electric field.
                with respect to dipole field.
          Differentiating once with respect to nuclear coordinates.
 Keep R1 and R2 ints in memory in canonical form, NReq=4459439664.
          There are     1 degrees of freedom in the 1st order CPHF.  IDoFFX=0 NUNeed=     1.
 LinEq1:  Iter=  0 NonCon=     1 RMS=9.13D-04 Max=5.49D-02 NDo=     1
 AX will form     1 AO Fock derivatives at one time.
 LinEq1:  Iter=  1 NonCon=     1 RMS=3.35D-04 Max=1.61D-02 NDo=     1
 LinEq1:  Iter=  2 NonCon=     1 RMS=2.33D-04 Max=1.01D-02 NDo=     1
 LinEq1:  Iter=  3 NonCon=     1 RMS=1.18D-04 Max=4.96D-03 NDo=     1
 LinEq1:  Iter=  4 NonCon=     1 RMS=7.63D-05 Max=4.30D-03 NDo=     1
 LinEq1:  Iter=  5 NonCon=     1 RMS=5.17D-05 Max=3.16D-03 NDo=     1
 LinEq1:  Iter=  6 NonCon=     1 RMS=2.81D-05 Max=8.77D-04 NDo=     1
 LinEq1:  Iter=  7 NonCon=     1 RMS=8.31D-06 Max=1.87D-04 NDo=     1
 LinEq1:  Iter=  8 NonCon=     1 RMS=5.33D-06 Max=3.25D-04 NDo=     1
 LinEq1:  Iter=  9 NonCon=     1 RMS=2.18D-06 Max=3.97D-05 NDo=     1
 LinEq1:  Iter= 10 NonCon=     1 RMS=1.02D-06 Max=2.43D-05 NDo=     1
 LinEq1:  Iter= 11 NonCon=     1 RMS=5.52D-07 Max=1.29D-05 NDo=     1
 LinEq1:  Iter= 12 NonCon=     1 RMS=2.27D-07 Max=3.93D-06 NDo=     1
 LinEq1:  Iter= 13 NonCon=     1 RMS=8.81D-08 Max=1.87D-06 NDo=     1
 LinEq1:  Iter= 14 NonCon=     1 RMS=3.34D-08 Max=1.01D-06 NDo=     1
 LinEq1:  Iter= 15 NonCon=     1 RMS=1.44D-08 Max=7.15D-07 NDo=     1
 LinEq1:  Iter= 16 NonCon=     1 RMS=6.16D-09 Max=2.24D-07 NDo=     1
 LinEq1:  Iter= 17 NonCon=     1 RMS=2.76D-09 Max=1.34D-07 NDo=     1
 LinEq1:  Iter= 18 NonCon=     1 RMS=9.23D-10 Max=5.21D-08 NDo=     1
 LinEq1:  Iter= 19 NonCon=     1 RMS=3.07D-10 Max=1.32D-08 NDo=     1
 LinEq1:  Iter= 20 NonCon=     1 RMS=1.15D-10 Max=3.78D-09 NDo=     1
 LinEq1:  Iter= 21 NonCon=     0 RMS=5.14D-11 Max=7.51D-10 NDo=     1
 Linear equations converged to 1.000D-10 1.000D-09 after    21 iterations.
 End of Minotr F.D. properties file   721 does not exist.
 End of Minotr F.D. properties file   722 does not exist.
 End of Minotr F.D. properties file   788 does not exist.
 Symmetrizing basis deriv contribution to polar:
 IMax=3 JMax=2 DiffMx= 0.00D+00
 G2DrvN: will do    19 centers at a time, making    1 passes.
 Calling FoFCou, ICntrl=  3107 FMM=F I1Cent=   0 AccDes= 0.00D+00.
 End of G2Drv F.D. properties file   721 does not exist.
 End of G2Drv F.D. properties file   722 does not exist.
 End of G2Drv F.D. properties file   788 does not exist.
 DoSCS=T DFT=T ScalE2(SS,OS)=  0.270000  0.270000
 R2 and R3 integrals will be kept in memory, NReq=  7133702340.
 DD1Dir will call FoFMem   1 times, MxPair=      2408
 NAB=   812 NAA=   406 NBB=   378.
 Discarding MO integrals.

 **********************************************************************

            Population analysis using the SCF Density.

 **********************************************************************

 Orbital symmetries:
 Alpha Orbitals:
       Occupied  (A) (A) (A) (A) (A) (A) (A) (A) (A) (A) (A) (A)
                 (A) (A) (A) (A) (A) (A) (A) (A) (A) (A) (A) (A)
                 (A) (A) (A) (A) (A)
       Virtual   (A) (A) (A) (A) (A) (A) (A) (A) (A) (A) (A) (A)
                 (A) (A) (A) (A) (A) (A) (A) (A) (A) (A) (A) (A)
                 (A) (A) (A) (A) (A) (A) (A) (A) (A) (A) (A) (A)
                 (A) (A) (A) (A) (A) (A) (A) (A) (A) (A) (A) (A)
                 (A) (A) (A) (A) (A) (A) (A) (A) (A) (A) (A) (A)
                 (A) (A) (A) (A) (A) (A) (A) (A) (A) (A) (A) (A)
                 (A) (A) (A) (A) (A) (A) (A) (A) (A) (A) (A) (A)
                 (A) (A) (A) (A) (A) (A) (A) (A) (A) (A) (A) (A)
                 (A) (A) (A) (A) (A) (A) (A) (A) (A) (A) (A) (A)
                 (A) (A) (A) (A) (A) (A) (A) (A) (A) (A) (A) (A)
                 (A) (A) (A) (A) (A) (A) (A) (A) (A) (A) (A) (A)
                 (A) (A) (A) (A) (A) (A) (A) (A) (A) (A) (A) (A)
                 (A) (A) (A) (A) (A) (A) (A) (A) (A) (A) (A) (A)
                 (A) (A) (A) (A) (A) (A) (A) (A) (A) (A) (A) (A)
                 (A) (A) (A) (A) (A) (A) (A) (A) (A) (A) (A) (A)
                 (A) (A) (A) (A) (A) (A) (A) (A) (A) (A) (A) (A)
                 (A) (A) (A) (A) (A) (A) (A) (A) (A) (A) (A) (A)
                 (A) (A) (A) (A) (A) (A) (A) (A) (A) (A) (A) (A)
                 (A) (A) (A) (A) (A) (A) (A) (A) (A) (A) (A) (A)
                 (A) (A) (A) (A) (A) (A) (A) (A) (A) (A) (A) (A)
                 (A) (A) (A) (A) (A) (A) (A) (A) (A) (A) (A) (A)
                 (A) (A) (A) (A) (A) (A) (A) (A) (A) (A) (A) (A)
                 (A) (A) (A) (A) (A) (A) (A) (A) (A) (A) (A) (A)
                 (A) (A) (A) (A) (A) (A) (A) (A) (A) (A) (A) (A)
                 (A) (A) (A) (A) (A) (A) (A) (A) (A) (A) (A) (A)
                 (A) (A) (A) (A) (A) (A) (A) (A) (A) (A) (A) (A)
                 (A) (A) (A) (A) (A) (A) (A) (A) (A) (A) (A) (A)
                 (A) (A) (A) (A) (A) (A) (A) (A) (A) (A) (A)
 Beta  Orbitals:
       Occupied  (A) (A) (A) (A) (A) (A) (A) (A) (A) (A) (A) (A)
                 (A) (A) (A) (A) (A) (A) (A) (A) (A) (A) (A) (A)
                 (A) (A) (A) (A)
       Virtual   (A) (A) (A) (A) (A) (A) (A) (A) (A) (A) (A) (A)
                 (A) (A) (A) (A) (A) (A) (A) (A) (A) (A) (A) (A)
                 (A) (A) (A) (A) (A) (A) (A) (A) (A) (A) (A) (A)
                 (A) (A) (A) (A) (A) (A) (A) (A) (A) (A) (A) (A)
                 (A) (A) (A) (A) (A) (A) (A) (A) (A) (A) (A) (A)
                 (A) (A) (A) (A) (A) (A) (A) (A) (A) (A) (A) (A)
                 (A) (A) (A) (A) (A) (A) (A) (A) (A) (A) (A) (A)
                 (A) (A) (A) (A) (A) (A) (A) (A) (A) (A) (A) (A)
                 (A) (A) (A) (A) (A) (A) (A) (A) (A) (A) (A) (A)
                 (A) (A) (A) (A) (A) (A) (A) (A) (A) (A) (A) (A)
                 (A) (A) (A) (A) (A) (A) (A) (A) (A) (A) (A) (A)
                 (A) (A) (A) (A) (A) (A) (A) (A) (A) (A) (A) (A)
                 (A) (A) (A) (A) (A) (A) (A) (A) (A) (A) (A) (A)
                 (A) (A) (A) (A) (A) (A) (A) (A) (A) (A) (A) (A)
                 (A) (A) (A) (A) (A) (A) (A) (A) (A) (A) (A) (A)
                 (A) (A) (A) (A) (A) (A) (A) (A) (A) (A) (A) (A)
                 (A) (A) (A) (A) (A) (A) (A) (A) (A) (A) (A) (A)
                 (A) (A) (A) (A) (A) (A) (A) (A) (A) (A) (A) (A)
                 (A) (A) (A) (A) (A) (A) (A) (A) (A) (A) (A) (A)
                 (A) (A) (A) (A) (A) (A) (A) (A) (A) (A) (A) (A)
                 (A) (A) (A) (A) (A) (A) (A) (A) (A) (A) (A) (A)
                 (A) (A) (A) (A) (A) (A) (A) (A) (A) (A) (A) (A)
                 (A) (A) (A) (A) (A) (A) (A) (A) (A) (A) (A) (A)
                 (A) (A) (A) (A) (A) (A) (A) (A) (A) (A) (A) (A)
                 (A) (A) (A) (A) (A) (A) (A) (A) (A) (A) (A) (A)
                 (A) (A) (A) (A) (A) (A) (A) (A) (A) (A) (A) (A)
                 (A) (A) (A) (A) (A) (A) (A) (A) (A) (A) (A) (A)
                 (A) (A) (A) (A) (A) (A) (A) (A) (A) (A) (A) (A)
 The electronic state is 2-A.
 Alpha  occ. eigenvalues --  -19.79159 -19.78432 -10.65851 -10.63435 -10.62580
 Alpha  occ. eigenvalues --  -10.61680 -10.61469  -1.29556  -1.01272  -0.94408
 Alpha  occ. eigenvalues --   -0.81211  -0.80211  -0.77344  -0.62737  -0.60463
 Alpha  occ. eigenvalues --   -0.56528  -0.55345  -0.53971  -0.53317  -0.49995
 Alpha  occ. eigenvalues --   -0.49149  -0.45282  -0.44688  -0.44236  -0.42002
 Alpha  occ. eigenvalues --   -0.38956  -0.36142  -0.34216  -0.27503
 Alpha virt. eigenvalues --    0.06768   0.07408   0.11099   0.11526   0.12151
 Alpha virt. eigenvalues --    0.13402   0.14426   0.15326   0.16006   0.16550
 Alpha virt. eigenvalues --    0.18713   0.18870   0.20564   0.21248   0.27448
 Alpha virt. eigenvalues --    0.28222   0.29405   0.30779   0.31580   0.33499
 Alpha virt. eigenvalues --    0.34279   0.37754   0.38895   0.40196   0.41221
 Alpha virt. eigenvalues --    0.43830   0.45073   0.45498   0.47867   0.49496
 Alpha virt. eigenvalues --    0.50737   0.51229   0.52019   0.52361   0.52846
 Alpha virt. eigenvalues --    0.53436   0.53974   0.54442   0.55580   0.56604
 Alpha virt. eigenvalues --    0.57436   0.59303   0.60596   0.62537   0.64233
 Alpha virt. eigenvalues --    0.65945   0.66714   0.70166   0.70264   0.72887
 Alpha virt. eigenvalues --    0.74779   0.76197   0.79001   0.80155   0.82383
 Alpha virt. eigenvalues --    0.84639   0.85555   0.88258   0.89064   0.91385
 Alpha virt. eigenvalues --    0.93180   0.97045   0.97378   0.99337   1.00574
 Alpha virt. eigenvalues --    1.01786   1.03159   1.03473   1.05252   1.05848
 Alpha virt. eigenvalues --    1.07877   1.09051   1.11853   1.12523   1.13426
 Alpha virt. eigenvalues --    1.13555   1.15878   1.16388   1.18983   1.19808
 Alpha virt. eigenvalues --    1.23419   1.24720   1.25749   1.26192   1.28620
 Alpha virt. eigenvalues --    1.29625   1.30914   1.31946   1.33057   1.34841
 Alpha virt. eigenvalues --    1.37120   1.37744   1.38810   1.40167   1.41412
 Alpha virt. eigenvalues --    1.42281   1.43836   1.46455   1.47162   1.50700
 Alpha virt. eigenvalues --    1.53238   1.53394   1.55891   1.57569   1.57973
 Alpha virt. eigenvalues --    1.59526   1.62214   1.62414   1.64067   1.69994
 Alpha virt. eigenvalues --    1.74640   1.80544   1.82236   1.85916   1.88631
 Alpha virt. eigenvalues --    1.92242   1.99848   2.06256   2.06451   2.11977
 Alpha virt. eigenvalues --    2.18530   2.22753   2.24355   2.29243   2.32347
 Alpha virt. eigenvalues --    2.36442   2.37608   2.40413   2.42123   2.46551
 Alpha virt. eigenvalues --    2.47937   2.49439   2.51056   2.54043   2.56458
 Alpha virt. eigenvalues --    2.59714   2.62941   2.65229   2.66845   2.68253
 Alpha virt. eigenvalues --    2.71240   2.73000   2.74310   2.76131   2.79483
 Alpha virt. eigenvalues --    2.84180   2.85854   2.87658   2.89016   2.90453
 Alpha virt. eigenvalues --    2.91251   2.92289   2.93425   2.94040   2.97471
 Alpha virt. eigenvalues --    2.98846   2.99123   2.99969   3.00438   3.04056
 Alpha virt. eigenvalues --    3.04959   3.05655   3.07386   3.07754   3.09264
 Alpha virt. eigenvalues --    3.11683   3.13630   3.14971   3.15654   3.15860
 Alpha virt. eigenvalues --    3.17873   3.19549   3.21416   3.21593   3.22639
 Alpha virt. eigenvalues --    3.22987   3.23534   3.24825   3.26961   3.29504
 Alpha virt. eigenvalues --    3.33142   3.33708   3.38138   3.38746   3.41640
 Alpha virt. eigenvalues --    3.42345   3.42961   3.44520   3.45940   3.47002
 Alpha virt. eigenvalues --    3.49656   3.50659   3.51322   3.52466   3.53629
 Alpha virt. eigenvalues --    3.55857   3.56581   3.59238   3.60244   3.61444
 Alpha virt. eigenvalues --    3.61929   3.63826   3.66597   3.67667   3.68396
 Alpha virt. eigenvalues --    3.70376   3.73766   3.75130   3.79717   3.81982
 Alpha virt. eigenvalues --    3.82260   3.84631   3.86374   3.88390   3.91433
 Alpha virt. eigenvalues --    3.92736   3.92899   3.94880   3.96263   3.98157
 Alpha virt. eigenvalues --    3.99444   4.01959   4.02787   4.04257   4.05598
 Alpha virt. eigenvalues --    4.08108   4.11023   4.11287   4.12511   4.13864
 Alpha virt. eigenvalues --    4.14268   4.15251   4.16875   4.18793   4.19578
 Alpha virt. eigenvalues --    4.21432   4.21712   4.22156   4.25200   4.26915
 Alpha virt. eigenvalues --    4.27403   4.29584   4.31713   4.32021   4.35536
 Alpha virt. eigenvalues --    4.38308   4.39993   4.42438   4.46095   4.47432
 Alpha virt. eigenvalues --    4.48971   4.51540   4.55187   4.56899   4.61114
 Alpha virt. eigenvalues --    4.64563   4.64768   4.67967   4.69210   4.71736
 Alpha virt. eigenvalues --    4.74207   4.78852   4.82654   4.88054   4.90217
 Alpha virt. eigenvalues --    4.91680   4.95024   4.99674   5.00506   5.02204
 Alpha virt. eigenvalues --    5.03042   5.04808   5.06408   5.06805   5.08529
 Alpha virt. eigenvalues --    5.13082   5.15591   5.16603   5.19683   5.24185
 Alpha virt. eigenvalues --    5.25803   5.28131   5.31708   5.33259   5.34228
 Alpha virt. eigenvalues --    5.34483   5.35608   5.38378   5.39381   5.40028
 Alpha virt. eigenvalues --    5.42369   5.45580   5.46129   5.49933   5.51469
 Alpha virt. eigenvalues --    5.53463   5.56460   5.64710   5.68507   5.71433
 Alpha virt. eigenvalues --    5.78919   5.89726   5.95557   5.96360   5.98583
 Alpha virt. eigenvalues --    6.01530   6.02338   6.06693   6.07196   6.11582
 Alpha virt. eigenvalues --    6.13201   6.17941   6.30348   6.38239   6.41185
 Alpha virt. eigenvalues --    6.44839   6.69113   6.73230   6.76419   6.82444
 Alpha virt. eigenvalues --    6.97100   7.05438   7.07629   7.14443   7.46202
 Alpha virt. eigenvalues --    7.47941   7.63864   7.66703   9.84568  10.19758
 Alpha virt. eigenvalues --   10.89949  13.56456  13.63368  14.12182  14.48578
  Beta  occ. eigenvalues --  -19.78796 -19.76655 -10.65867 -10.63839 -10.61664
  Beta  occ. eigenvalues --  -10.61651 -10.60859  -1.27300  -0.98053  -0.93978
  Beta  occ. eigenvalues --   -0.80328  -0.78290  -0.76500  -0.61849  -0.57520
  Beta  occ. eigenvalues --   -0.55042  -0.54911  -0.53622  -0.53022  -0.49339
  Beta  occ. eigenvalues --   -0.46418  -0.44896  -0.44460  -0.43490  -0.41693
  Beta  occ. eigenvalues --   -0.35369  -0.34358  -0.29135
  Beta virt. eigenvalues --   -0.05283   0.07502   0.07585   0.11531   0.11669
  Beta virt. eigenvalues --    0.12253   0.13695   0.14599   0.15569   0.16054
  Beta virt. eigenvalues --    0.16808   0.18924   0.19142   0.20701   0.21857
  Beta virt. eigenvalues --    0.27699   0.28564   0.29788   0.31443   0.31981
  Beta virt. eigenvalues --    0.33925   0.34725   0.37813   0.39671   0.40789
  Beta virt. eigenvalues --    0.41911   0.43875   0.45229   0.45677   0.48302
  Beta virt. eigenvalues --    0.49895   0.51219   0.51468   0.52223   0.52623
  Beta virt. eigenvalues --    0.53260   0.53738   0.54381   0.55244   0.56069
  Beta virt. eigenvalues --    0.57141   0.57935   0.59976   0.61143   0.62847
  Beta virt. eigenvalues --    0.64460   0.66107   0.66902   0.70384   0.70658
  Beta virt. eigenvalues --    0.73650   0.75258   0.76377   0.79261   0.80508
  Beta virt. eigenvalues --    0.82829   0.84840   0.85839   0.88539   0.89521
  Beta virt. eigenvalues --    0.91458   0.93580   0.97252   0.97497   0.99494
  Beta virt. eigenvalues --    1.00774   1.01958   1.03332   1.03705   1.05407
  Beta virt. eigenvalues --    1.06016   1.08039   1.09266   1.12598   1.13067
  Beta virt. eigenvalues --    1.13759   1.14021   1.16100   1.16671   1.19041
  Beta virt. eigenvalues --    1.20083   1.23553   1.24957   1.25786   1.26234
  Beta virt. eigenvalues --    1.28697   1.30115   1.31166   1.32387   1.33544
  Beta virt. eigenvalues --    1.34922   1.37285   1.37934   1.39064   1.40244
  Beta virt. eigenvalues --    1.41732   1.42640   1.44030   1.46824   1.47259
  Beta virt. eigenvalues --    1.51097   1.53255   1.53853   1.56346   1.57720
  Beta virt. eigenvalues --    1.58394   1.59855   1.62501   1.62789   1.64330
  Beta virt. eigenvalues --    1.70361   1.75575   1.81074   1.82857   1.86486
  Beta virt. eigenvalues --    1.89728   1.92921   2.00133   2.06994   2.07403
  Beta virt. eigenvalues --    2.12375   2.19650   2.24565   2.25033   2.29417
  Beta virt. eigenvalues --    2.32846   2.36940   2.38467   2.40839   2.42893
  Beta virt. eigenvalues --    2.46516   2.48357   2.49474   2.51347   2.54487
  Beta virt. eigenvalues --    2.56794   2.59932   2.63366   2.66310   2.67295
  Beta virt. eigenvalues --    2.68749   2.71410   2.73116   2.74515   2.76231
  Beta virt. eigenvalues --    2.79749   2.84545   2.86354   2.88277   2.89720
  Beta virt. eigenvalues --    2.90605   2.91617   2.92457   2.93664   2.94223
  Beta virt. eigenvalues --    2.97756   2.99386   2.99528   3.00502   3.00833
  Beta virt. eigenvalues --    3.04311   3.05135   3.06223   3.07692   3.07986
  Beta virt. eigenvalues --    3.09593   3.11940   3.13806   3.15061   3.15959
  Beta virt. eigenvalues --    3.16312   3.18100   3.20091   3.21521   3.22119
  Beta virt. eigenvalues --    3.22698   3.23159   3.24113   3.25280   3.27518
  Beta virt. eigenvalues --    3.29812   3.33913   3.34354   3.38162   3.38971
  Beta virt. eigenvalues --    3.41830   3.42616   3.43088   3.44632   3.46091
  Beta virt. eigenvalues --    3.47194   3.50078   3.51168   3.51532   3.52522
  Beta virt. eigenvalues --    3.53785   3.55952   3.56672   3.59371   3.60595
  Beta virt. eigenvalues --    3.61540   3.62204   3.64106   3.66870   3.67822
  Beta virt. eigenvalues --    3.68456   3.70508   3.73990   3.75353   3.79795
  Beta virt. eigenvalues --    3.82201   3.82432   3.84731   3.86520   3.88637
  Beta virt. eigenvalues --    3.91426   3.92892   3.93008   3.94964   3.96474
  Beta virt. eigenvalues --    3.98241   3.99610   4.02147   4.02807   4.04208
  Beta virt. eigenvalues --    4.05588   4.07997   4.11086   4.11199   4.12450
  Beta virt. eigenvalues --    4.13911   4.14496   4.15324   4.16913   4.18876
  Beta virt. eigenvalues --    4.19839   4.21300   4.21799   4.22094   4.25145
  Beta virt. eigenvalues --    4.26990   4.27487   4.29610   4.31882   4.32155
  Beta virt. eigenvalues --    4.35659   4.38396   4.40061   4.42824   4.46394
  Beta virt. eigenvalues --    4.47638   4.49291   4.51681   4.55634   4.56976
  Beta virt. eigenvalues --    4.61797   4.64931   4.65539   4.68306   4.69651
  Beta virt. eigenvalues --    4.72062   4.74597   4.79532   4.82935   4.88511
  Beta virt. eigenvalues --    4.90437   4.91768   4.95199   4.99902   5.00842
  Beta virt. eigenvalues --    5.02407   5.03371   5.04982   5.06747   5.07343
  Beta virt. eigenvalues --    5.08848   5.13571   5.16159   5.17085   5.20200
  Beta virt. eigenvalues --    5.24593   5.26000   5.28651   5.32157   5.33493
  Beta virt. eigenvalues --    5.34578   5.34826   5.36003   5.38596   5.39603
  Beta virt. eigenvalues --    5.40412   5.42514   5.45601   5.46325   5.50082
  Beta virt. eigenvalues --    5.51694   5.53648   5.56608   5.65268   5.69415
  Beta virt. eigenvalues --    5.71723   5.79482   5.90965   5.95659   5.96510
  Beta virt. eigenvalues --    5.99342   6.02105   6.02818   6.07193   6.07601
  Beta virt. eigenvalues --    6.12489   6.13326   6.19884   6.30988   6.38365
  Beta virt. eigenvalues --    6.42898   6.45316   6.70093   6.76789   6.79013
  Beta virt. eigenvalues --    6.83987   6.99335   7.07884   7.08699   7.16547
  Beta virt. eigenvalues --    7.46747   7.49483   7.65613   7.67820   9.85843
  Beta virt. eigenvalues --   10.19681  10.90882  13.57021  13.63541  14.12182
  Beta virt. eigenvalues --   14.49006
          Condensed to atoms (all electrons):
               1          2          3          4          5          6
     1  C    5.043168   0.416663   0.404154  -0.003662   0.000086   0.000303
     2  H    0.416663   0.542820  -0.029347   0.000001   0.000059   0.000034
     3  H    0.404154  -0.029347   0.565678   0.000161  -0.000454  -0.000010
     4  C   -0.003662   0.000001   0.000161   4.626335   0.381147   0.398943
     5  H    0.000086   0.000059  -0.000454   0.381147   0.702415  -0.038267
     6  H    0.000303   0.000034  -0.000010   0.398943  -0.038267   0.586835
     7  H   -0.000216  -0.000005   0.000058   0.421587  -0.054924  -0.026673
     8  O    0.002219   0.000206   0.000610   0.296303  -0.051507  -0.025728
     9  O   -0.074035  -0.000377   0.000312  -0.045214  -0.002202   0.006760
    10  H    0.252080  -0.007225  -0.014105   0.001316   0.005127  -0.000700
    11  C    0.370207  -0.041519  -0.039466   0.001582  -0.000750   0.000812
    12  C   -0.061027  -0.006529   0.006075  -0.004341  -0.006438   0.000330
    13  H    0.006563  -0.000028  -0.000326  -0.000177   0.000097   0.000090
    14  H   -0.007138   0.002558   0.000084   0.000059   0.000073  -0.000046
    15  C   -0.057838   0.005483  -0.004048  -0.001172  -0.005353  -0.000017
    16  H   -0.004449  -0.000207   0.001876  -0.000002   0.000189   0.000001
    17  H    0.005477  -0.000327   0.000179   0.000153   0.000174  -0.000008
    18  H    0.002813   0.000064  -0.002617  -0.001066  -0.001364   0.000208
               7          8          9         10         11         12
     1  C   -0.000216   0.002219  -0.074035   0.252080   0.370207  -0.061027
     2  H   -0.000005   0.000206  -0.000377  -0.007225  -0.041519  -0.006529
     3  H    0.000058   0.000610   0.000312  -0.014105  -0.039466   0.006075
     4  C    0.421587   0.296303  -0.045214   0.001316   0.001582  -0.004341
     5  H   -0.054924  -0.051507  -0.002202   0.005127  -0.000750  -0.006438
     6  H   -0.026673  -0.025728   0.006760  -0.000700   0.000812   0.000330
     7  H    0.589059  -0.037145   0.004136  -0.000033   0.000330   0.000739
     8  O   -0.037145   7.937142   0.066603  -0.026610  -0.005320   0.007173
     9  O    0.004136   0.066603   8.105850   0.163372  -0.008620  -0.000036
    10  H   -0.000033  -0.026610   0.163372   0.438780  -0.007427  -0.007570
    11  C    0.000330  -0.005320  -0.008620  -0.007427   4.934781   0.584334
    12  C    0.000739   0.007173  -0.000036  -0.007570   0.584334   5.025251
    13  H    0.000007   0.000037   0.000031  -0.000016  -0.051283   0.416465
    14  H    0.000031   0.001841  -0.000295  -0.000015  -0.044177   0.412964
    15  C    0.000001   0.000191  -0.000636  -0.001067   0.348584  -0.053695
    16  H    0.000001  -0.000001  -0.000063  -0.000350  -0.037038   0.001001
    17  H   -0.000020  -0.000010  -0.000037  -0.000102  -0.040169  -0.005460
    18  H   -0.000009  -0.000155   0.003046   0.002313  -0.050412  -0.000915
              13         14         15         16         17         18
     1  C    0.006563  -0.007138  -0.057838  -0.004449   0.005477   0.002813
     2  H   -0.000028   0.002558   0.005483  -0.000207  -0.000327   0.000064
     3  H   -0.000326   0.000084  -0.004048   0.001876   0.000179  -0.002617
     4  C   -0.000177   0.000059  -0.001172  -0.000002   0.000153  -0.001066
     5  H    0.000097   0.000073  -0.005353   0.000189   0.000174  -0.001364
     6  H    0.000090  -0.000046  -0.000017   0.000001  -0.000008   0.000208
     7  H    0.000007   0.000031   0.000001   0.000001  -0.000020  -0.000009
     8  O    0.000037   0.001841   0.000191  -0.000001  -0.000010  -0.000155
     9  O    0.000031  -0.000295  -0.000636  -0.000063  -0.000037   0.003046
    10  H   -0.000016  -0.000015  -0.001067  -0.000350  -0.000102   0.002313
    11  C   -0.051283  -0.044177   0.348584  -0.037038  -0.040169  -0.050412
    12  C    0.416465   0.412964  -0.053695   0.001001  -0.005460  -0.000915
    13  H    0.543476  -0.034384  -0.008229   0.000117   0.002602   0.000396
    14  H   -0.034384   0.536402   0.006548  -0.000316   0.000060  -0.000366
    15  C   -0.008229   0.006548   4.840418   0.409839   0.414762   0.403495
    16  H    0.000117  -0.000316   0.409839   0.574199  -0.023054  -0.038177
    17  H    0.002602   0.000060   0.414762  -0.023054   0.573030  -0.029625
    18  H    0.000396  -0.000366   0.403495  -0.038177  -0.029625   0.613260
          Atomic-Atomic Spin Densities.
               1          2          3          4          5          6
     1  C    0.498765   0.000697   0.003758   0.001687  -0.004672   0.000049
     2  H    0.000697  -0.019561   0.002359  -0.000071   0.000163  -0.000007
     3  H    0.003758   0.002359  -0.024314  -0.000128   0.000376  -0.000002
     4  C    0.001687  -0.000071  -0.000128  -0.008459   0.000717   0.001085
     5  H   -0.004672   0.000163   0.000376   0.000717   0.006428  -0.000804
     6  H    0.000049  -0.000007  -0.000002   0.001085  -0.000804  -0.001793
     7  H    0.000749  -0.000024  -0.000041  -0.000546  -0.001548   0.000560
     8  O    0.013290  -0.000820  -0.000443   0.002390  -0.002502   0.000348
     9  O   -0.069018   0.002928   0.002785  -0.003471   0.004268  -0.000210
    10  H    0.052879   0.001445   0.003558   0.002142  -0.004142   0.000131
    11  C   -0.022046   0.002045   0.001251  -0.001772   0.004163  -0.000231
    12  C   -0.016558  -0.001288  -0.000640  -0.002956   0.005115  -0.000108
    13  H   -0.000156   0.000013   0.000039  -0.000061   0.000171  -0.000013
    14  H   -0.000071  -0.000215  -0.000076   0.000019  -0.000063   0.000007
    15  C   -0.002844  -0.000141  -0.001430  -0.000084   0.000181   0.000025
    16  H    0.000841   0.000055   0.000119  -0.000032   0.000201  -0.000001
    17  H   -0.000034   0.000024   0.000030  -0.000082   0.000280  -0.000001
    18  H    0.001298  -0.000057   0.000245   0.000544  -0.002330   0.000012
               7          8          9         10         11         12
     1  C    0.000749   0.013290  -0.069018   0.052879  -0.022046  -0.016558
     2  H   -0.000024  -0.000820   0.002928   0.001445   0.002045  -0.001288
     3  H   -0.000041  -0.000443   0.002785   0.003558   0.001251  -0.000640
     4  C   -0.000546   0.002390  -0.003471   0.002142  -0.001772  -0.002956
     5  H   -0.001548  -0.002502   0.004268  -0.004142   0.004163   0.005115
     6  H    0.000560   0.000348  -0.000210   0.000131  -0.000231  -0.000108
     7  H    0.001930  -0.000802   0.000727   0.001269  -0.000462  -0.000428
     8  O   -0.000802   0.120204  -0.061253   0.011872  -0.002860  -0.008676
     9  O    0.000727  -0.061253   0.626385  -0.049396   0.008628   0.003865
    10  H    0.001269   0.011872  -0.049396  -0.103874   0.002730   0.000198
    11  C   -0.000462  -0.002860   0.008628   0.002730  -0.232008   0.001318
    12  C   -0.000428  -0.008676   0.003865   0.000198   0.001318   0.380678
    13  H   -0.000008  -0.000103   0.000029  -0.000023  -0.000944   0.004877
    14  H    0.000006   0.000202  -0.000172   0.000184  -0.000291   0.004070
    15  C   -0.000013  -0.000023   0.000131   0.000342   0.007549   0.000254
    16  H   -0.000008  -0.000026   0.000087   0.000017   0.003890  -0.000856
    17  H   -0.000013  -0.000032   0.000040  -0.000019   0.000678   0.000026
    18  H    0.000247   0.000357  -0.001195  -0.000588   0.004875  -0.000146
              13         14         15         16         17         18
     1  C   -0.000156  -0.000071  -0.002844   0.000841  -0.000034   0.001298
     2  H    0.000013  -0.000215  -0.000141   0.000055   0.000024  -0.000057
     3  H    0.000039  -0.000076  -0.001430   0.000119   0.000030   0.000245
     4  C   -0.000061   0.000019  -0.000084  -0.000032  -0.000082   0.000544
     5  H    0.000171  -0.000063   0.000181   0.000201   0.000280  -0.002330
     6  H   -0.000013   0.000007   0.000025  -0.000001  -0.000001   0.000012
     7  H   -0.000008   0.000006  -0.000013  -0.000008  -0.000013   0.000247
     8  O   -0.000103   0.000202  -0.000023  -0.000026  -0.000032   0.000357
     9  O    0.000029  -0.000172   0.000131   0.000087   0.000040  -0.001195
    10  H   -0.000023   0.000184   0.000342   0.000017  -0.000019  -0.000588
    11  C   -0.000944  -0.000291   0.007549   0.003890   0.000678   0.004875
    12  C    0.004877   0.004070   0.000254  -0.000856   0.000026  -0.000146
    13  H   -0.023135   0.002545   0.000161   0.000027  -0.000097  -0.000073
    14  H    0.002545  -0.019986  -0.000050  -0.000012  -0.000001   0.000033
    15  C    0.000161  -0.000050   0.014764  -0.004411  -0.000759  -0.000514
    16  H    0.000027  -0.000012  -0.004411  -0.008462   0.000712   0.001862
    17  H   -0.000097  -0.000001  -0.000759   0.000712  -0.001062  -0.000488
    18  H   -0.000073   0.000033  -0.000514   0.001862  -0.000488  -0.011246
 Mulliken charges and spin densities:
               1          2
     1  C   -0.295366   0.458613
     2  H    0.117677  -0.012456
     3  H    0.111185  -0.012554
     4  C   -0.071951  -0.009076
     5  H    0.071893   0.006001
     6  H    0.097132  -0.000952
     7  H    0.103078   0.001593
     8  O   -0.165850   0.071125
     9  O   -0.218597   0.465159
    10  H    0.202231  -0.081273
    11  C    0.085554  -0.223487
    12  C   -0.308322   0.368746
    13  H    0.124561  -0.016751
    14  H    0.126120  -0.013871
    15  C   -0.297265   0.013138
    16  H    0.116434  -0.005998
    17  H    0.102375  -0.000794
    18  H    0.099112  -0.007163
 Sum of Mulliken charges =  -0.00000   1.00000
 Mulliken charges and spin densities with hydrogens summed into heavy atoms:
               1          2
     1  C   -0.066504   0.433603
     4  C    0.200151  -0.002434
     8  O   -0.165850   0.071125
     9  O   -0.016366   0.383886
    11  C    0.085554  -0.223487
    12  C   -0.057641   0.338124
    15  C    0.020656  -0.000818
 APT charges:
               1
     1  C    0.404229
     2  H   -0.038312
     3  H   -0.044738
     4  C    0.422526
     5  H   -0.028547
     6  H   -0.003696
     7  H   -0.037690
     8  O   -0.314063
     9  O    0.087198
    10  H   -0.384960
    11  C   -0.051110
    12  C   -0.100994
    13  H    0.042064
    14  H    0.020702
    15  C    0.046762
    16  H   -0.008568
    17  H   -0.008054
    18  H   -0.002747
 Sum of APT charges =  -0.00000
 APT charges with hydrogens summed into heavy atoms:
               1
     1  C    0.321179
     4  C    0.352593
     8  O   -0.314063
     9  O   -0.297763
    11  C   -0.051110
    12  C   -0.038229
    15  C    0.027392
 Electronic spatial extent (au):  <R**2>=            945.0248
 Charge=             -0.0000 electrons
 Dipole moment (field-independent basis, Debye):
    X=              1.6786    Y=             -1.5961    Z=             -0.6543  Tot=              2.4070
 Quadrupole moment (field-independent basis, Debye-Ang):
   XX=            -47.2281   YY=            -42.1854   ZZ=            -44.0409
   XY=              4.0780   XZ=             -0.1791   YZ=              0.2181
 Traceless Quadrupole moment (field-independent basis, Debye-Ang):
   XX=             -2.7433   YY=              2.2994   ZZ=              0.4439
   XY=              4.0780   XZ=             -0.1791   YZ=              0.2181
 Octapole moment (field-independent basis, Debye-Ang**2):
  XXX=            -16.4283  YYY=              0.7942  ZZZ=              2.4323  XYY=             -2.6711
  XXY=             -8.2231  XXZ=             -6.8670  XZZ=             -3.5861  YZZ=              1.7156
  YYZ=              1.8924  XYZ=             -2.0298
 Hexadecapole moment (field-independent basis, Debye-Ang**3):
 XXXX=           -716.4061 YYYY=           -301.2267 ZZZZ=           -225.3260 XXXY=              8.9700
 XXXZ=             -7.6214 YYYX=             -0.2596 YYYZ=             -4.8057 ZZZX=             -1.1091
 ZZZY=             -0.5857 XXYY=           -166.2206 XXZZ=           -159.9212 YYZZ=            -86.1494
 XXYZ=             -2.1120 YYXZ=             -1.6977 ZZXY=              1.3021
 N-N= 3.184877211188D+02 E-N=-1.448151925542D+03  KE= 3.453959849562D+02
  Exact polarizability: 106.168   2.596  78.064   6.927  -6.352  74.112
 Approx polarizability:  96.961  -1.476  86.968   3.864 -12.389  86.773
                          Isotropic Fermi Contact Couplings
        Atom                 a.u.       MegaHertz       Gauss      10(-4) cm-1
     1  C(13)              0.05984      67.27441      24.00518      22.44033
     2  H(1)              -0.00311     -13.89583      -4.95838      -4.63515
     3  H(1)              -0.00285     -12.74998      -4.54951      -4.25293
     4  C(13)             -0.00552      -6.20510      -2.21413      -2.06980
     5  H(1)               0.00227      10.14375       3.61954       3.38359
     6  H(1)              -0.00011      -0.51128      -0.18244      -0.17055
     7  H(1)               0.00079       3.53895       1.26278       1.18047
     8  O(17)              0.02617     -15.86140      -5.65974      -5.29079
     9  O(17)              0.03512     -21.28815      -7.59614      -7.10096
    10  H(1)              -0.01973     -88.20984     -31.47546     -29.42364
    11  C(13)             -0.00935     -10.51423      -3.75174      -3.50717
    12  C(13)              0.00446       5.01286       1.78871       1.67211
    13  H(1)              -0.00304     -13.59688      -4.85171      -4.53543
    14  H(1)              -0.00276     -12.33655      -4.40199      -4.11503
    15  C(13)              0.00029       0.32365       0.11549       0.10796
    16  H(1)              -0.00118      -5.25453      -1.87495      -1.75272
    17  H(1)              -0.00014      -0.60910      -0.21734      -0.20317
    18  H(1)              -0.00085      -3.78896      -1.35200      -1.26386
 --------------------------------------------------------
       Center         ----  Spin Dipole Couplings  ----
                      3XX-RR        3YY-RR        3ZZ-RR
 --------------------------------------------------------
     1   Atom        0.425985     -0.233168     -0.192817
     2   Atom       -0.000319     -0.011579      0.011898
     3   Atom        0.004045     -0.015989      0.011944
     4   Atom       -0.006796      0.011288     -0.004492
     5   Atom       -0.003890      0.006619     -0.002729
     6   Atom       -0.002352      0.007240     -0.004889
     7   Atom       -0.002603      0.004861     -0.002258
     8   Atom        0.716119     -0.346275     -0.369845
     9   Atom        1.820928     -0.958099     -0.862830
    10   Atom        0.176101     -0.086206     -0.089895
    11   Atom       -0.041359      0.021816      0.019543
    12   Atom        0.214694     -0.095422     -0.119272
    13   Atom        0.001696      0.015258     -0.016954
    14   Atom        0.000214     -0.008132      0.007918
    15   Atom       -0.001747      0.001256      0.000491
    16   Atom        0.000902     -0.000929      0.000027
    17   Atom       -0.000407      0.000031      0.000376
    18   Atom       -0.001221      0.000229      0.000992
 --------------------------------------------------------
                        XY            XZ            YZ
 --------------------------------------------------------
     1   Atom        0.088423      0.179110      0.022162
     2   Atom        0.000745      0.000091      0.026411
     3   Atom        0.013409     -0.006704     -0.023513
     4   Atom        0.002846      0.000959      0.004168
     5   Atom       -0.002407      0.000678      0.004952
     6   Atom        0.002534      0.000473     -0.000653
     7   Atom        0.005323      0.002815      0.004694
     8   Atom       -0.025138      0.075683      0.019703
     9   Atom       -0.093098      0.496589     -0.010122
    10   Atom        0.049038      0.033681      0.002300
    11   Atom       -0.039910     -0.015738     -0.017244
    12   Atom        0.107679      0.076325      0.022000
    13   Atom       -0.005733      0.005559     -0.004123
    14   Atom       -0.001865     -0.003373      0.010483
    15   Atom       -0.003643     -0.002302      0.001527
    16   Atom       -0.002528     -0.002464      0.001467
    17   Atom       -0.002146     -0.001620      0.002369
    18   Atom       -0.002092     -0.002772      0.003822
 --------------------------------------------------------


 ---------------------------------------------------------------------------------
              Anisotropic Spin Dipole Couplings in Principal Axis System
 ---------------------------------------------------------------------------------

       Atom             a.u.   MegaHertz   Gauss  10(-4) cm-1        Axes

              Baa    -0.2453   -32.911   -11.744   -10.978 -0.2003  0.9363  0.2884
     1 C(13)  Bbb    -0.2404   -32.258   -11.510   -10.760 -0.2044 -0.3279  0.9223
              Bcc     0.4856    65.169    23.254    21.738  0.9582  0.1258  0.2571
 
              Baa    -0.0288   -15.342    -5.474    -5.117 -0.0202  0.8384 -0.5447
     2 H(1)   Bbb    -0.0003    -0.168    -0.060    -0.056  0.9997  0.0080 -0.0248
              Bcc     0.0291    15.510     5.534     5.174  0.0164  0.5450  0.8383
 
              Baa    -0.0315   -16.802    -5.995    -5.604 -0.2460  0.8678  0.4318
     3 H(1)   Bbb     0.0002     0.114     0.041     0.038  0.8686 -0.0004  0.4956
              Bcc     0.0313    16.688     5.955     5.566 -0.4302 -0.4970  0.7536
 
              Baa    -0.0073    -0.978    -0.349    -0.326  0.9793 -0.1123 -0.1684
     4 C(13)  Bbb    -0.0055    -0.737    -0.263    -0.246  0.1346 -0.2603  0.9561
              Bcc     0.0128     1.715     0.612     0.572  0.1512  0.9590  0.2398
 
              Baa    -0.0061    -3.265    -1.165    -1.089 -0.6212 -0.3831  0.6836
     5 H(1)   Bbb    -0.0029    -1.563    -0.558    -0.521  0.7691 -0.1306  0.6257
              Bcc     0.0091     4.829     1.723     1.611 -0.1504  0.9144  0.3758
 
              Baa    -0.0051    -2.715    -0.969    -0.906 -0.2626  0.1047  0.9592
     6 H(1)   Bbb    -0.0028    -1.494    -0.533    -0.498  0.9350 -0.2178  0.2798
              Bcc     0.0079     4.210     1.502     1.404  0.2382  0.9704 -0.0407
 
              Baa    -0.0055    -2.928    -1.045    -0.977  0.8928 -0.3116 -0.3254
     7 H(1)   Bbb    -0.0046    -2.437    -0.870    -0.813  0.1361 -0.5020  0.8541
              Bcc     0.0101     5.365     1.914     1.790  0.4295  0.8068  0.4057
 
              Baa    -0.3866    27.974     9.982     9.331 -0.0711 -0.4734  0.8780
     8 O(17)  Bbb    -0.3353    24.262     8.657     8.093 -0.0130  0.8806  0.4737
              Bcc     0.7219   -52.236   -18.639   -17.424  0.9974 -0.0222  0.0687
 
              Baa    -0.9644    69.785    24.901    23.278  0.1085  0.8906 -0.4417
     9 O(17)  Bbb    -0.9485    68.632    24.489    22.893 -0.1425  0.4537  0.8797
              Bcc     1.9129  -138.417   -49.391   -46.171  0.9838 -0.0325  0.1761
 
              Baa    -0.0983   -52.422   -18.705   -17.486 -0.2104  0.7333  0.6465
    10 H(1)   Bbb    -0.0908   -48.423   -17.279   -16.152  0.0256 -0.6569  0.7535
              Bcc     0.1890   100.845    35.984    33.638  0.9773  0.1751  0.1195
 
              Baa    -0.0662    -8.883    -3.170    -2.963  0.8634  0.4399  0.2470
    11 C(13)  Bbb     0.0214     2.878     1.027     0.960 -0.3820  0.2504  0.8896
              Bcc     0.0447     6.005     2.143     2.003 -0.3295  0.8624 -0.3843
 
              Baa    -0.1361   -18.269    -6.519    -6.094 -0.2606  0.1764  0.9492
    12 C(13)  Bbb    -0.1287   -17.269    -6.162    -5.760 -0.2412  0.9401 -0.2410
              Bcc     0.2648    35.538    12.681    11.854  0.9348  0.2918  0.2025
 
              Baa    -0.0187    -9.963    -3.555    -3.323 -0.2424  0.0766  0.9671
    13 H(1)   Bbb     0.0003     0.186     0.066     0.062  0.8967  0.3982  0.1932
              Bcc     0.0183     9.778     3.489     3.261 -0.3703  0.9141 -0.1652
 
              Baa    -0.0133    -7.102    -2.534    -2.369  0.0138  0.8974 -0.4410
    14 H(1)   Bbb    -0.0008    -0.452    -0.161    -0.151  0.9638  0.1055  0.2448
              Bcc     0.0142     7.554     2.696     2.520 -0.2662  0.4284  0.8635
 
              Baa    -0.0045    -0.598    -0.213    -0.200  0.8456  0.4730  0.2473
    15 C(13)  Bbb    -0.0007    -0.090    -0.032    -0.030  0.0610 -0.5459  0.8356
              Bcc     0.0051     0.689     0.246     0.230 -0.5303  0.6916  0.4904
 
              Baa    -0.0027    -1.461    -0.521    -0.487  0.6361  0.7533  0.1670
    16 H(1)   Bbb    -0.0018    -0.942    -0.336    -0.314  0.3273 -0.4594  0.8257
              Bcc     0.0045     2.403     0.858     0.802  0.6988 -0.4706 -0.5388
 
              Baa    -0.0025    -1.327    -0.474    -0.443  0.5359  0.7740 -0.3372
    17 H(1)   Bbb    -0.0016    -0.879    -0.314    -0.293  0.6757 -0.1537  0.7210
              Bcc     0.0041     2.206     0.787     0.736 -0.5063  0.6142  0.6053
 
              Baa    -0.0034    -1.804    -0.644    -0.602  0.4306 -0.5265  0.7330
    18 H(1)   Bbb    -0.0027    -1.445    -0.516    -0.482  0.7946  0.6064 -0.0312
              Bcc     0.0061     3.249     1.159     1.084 -0.4281  0.5959  0.6795
 

 ---------------------------------------------------------------------------------

 Calling FoFJK, ICntrl=  10100127 FMM=F ISym2X=0 I1Cent= 0 IOpClX= 1 NMat=1 NMatS=1 NMatT=0.
 ***** Axes restored to original set *****
 -------------------------------------------------------------------
 Center     Atomic                   Forces (Hartrees/Bohr)
 Number     Number              X              Y              Z
 -------------------------------------------------------------------
      1        6           0.003385352   -0.000337252   -0.001653214
      2        1          -0.000650623    0.000108447   -0.000467339
      3        1          -0.000473259    0.000038412    0.000863395
      4        6          -0.000248373    0.004998559   -0.004197956
      5        1           0.001887181    0.000485761    0.000335156
      6        1          -0.000021488   -0.000494704   -0.000221594
      7        1          -0.000465430    0.000376389    0.000338087
      8        8           0.003173300    0.006695289    0.011636314
      9        8           0.002037648   -0.010059124   -0.008336394
     10        1          -0.007246173   -0.001351584    0.001222483
     11        6          -0.000801394   -0.002862295   -0.002696560
     12        6           0.000043071    0.002164945    0.003892278
     13        1           0.000339962   -0.000976466    0.000126752
     14        1          -0.000610287    0.000676675   -0.000761768
     15        6           0.000082317    0.000150937   -0.000234116
     16        1           0.000354857    0.000408415    0.000038352
     17        1          -0.000056263   -0.000436795   -0.000319150
     18        1          -0.000730397    0.000414389    0.000435274
 -------------------------------------------------------------------
 Cartesian Forces:  Max     0.011636314 RMS     0.003115822
 FormGI is forming the generalized inverse of G from B-inverse, IUseBI=4.

 GradGradGradGradGradGradGradGradGradGradGradGradGradGradGradGradGradGrad
 Berny optimization.
 Internal  Forces:  Max     0.014941763 RMS     0.002580594
 Search for a saddle point.
 Step number   1 out of a maximum of  108
 All quantities printed in internal units (Hartrees-Bohrs-Radians)
 Swapping is turned off.
 Second derivative matrix not updated -- analytic derivatives used.
 ITU=  0
     Eigenvalues ---   -0.08435   0.00161   0.00246   0.00502   0.01172
     Eigenvalues ---    0.01736   0.02340   0.02741   0.03681   0.03749
     Eigenvalues ---    0.04183   0.04332   0.05684   0.05946   0.06807
     Eigenvalues ---    0.07979   0.08431   0.08529   0.10538   0.10619
     Eigenvalues ---    0.12048   0.12315   0.12590   0.13387   0.14017
     Eigenvalues ---    0.14534   0.16873   0.17433   0.18355   0.18568
     Eigenvalues ---    0.20110   0.27627   0.31410   0.32379   0.32951
     Eigenvalues ---    0.33276   0.33704   0.34117   0.34619   0.34711
     Eigenvalues ---    0.34836   0.35033   0.35492   0.36105   0.36297
     Eigenvalues ---    0.36897   0.46489   0.60097
 Eigenvectors required to have negative eigenvalues:
                          R10       R3        R9        R4        D7
   1                   -0.73869   0.58604   0.16028  -0.11288   0.09582
                          D6        D4        D5        A2        A27
   1                    0.09261  -0.08710  -0.08389  -0.07897   0.07380
 RFO step:  Lambda0=1.319720827D-04 Lambda=-1.27437070D-03.
 Linear search not attempted -- option 19 set.
 Iteration  1 RMS(Cart)=  0.06187025 RMS(Int)=  0.00089015
 Iteration  2 RMS(Cart)=  0.00240151 RMS(Int)=  0.00002762
 Iteration  3 RMS(Cart)=  0.00000271 RMS(Int)=  0.00002760
 Iteration  4 RMS(Cart)=  0.00000000 RMS(Int)=  0.00002760
 Variable       Old X    -DE/DX   Delta X   Delta X   Delta X     New X
                                 (Linear)    (Quad)   (Total)
    R1        2.05141  -0.00049   0.00000  -0.00160  -0.00160   2.04981
    R2        2.05328  -0.00052   0.00000  -0.00201  -0.00201   2.05127
    R3        2.46952  -0.00097   0.00000   0.01841   0.01841   2.48792
    R4        2.74681   0.00005   0.00000  -0.00707  -0.00707   2.73974
    R5        2.06037  -0.00184   0.00000  -0.00318  -0.00318   2.05718
    R6        2.05623  -0.00051   0.00000  -0.00075  -0.00075   2.05548
    R7        2.05949  -0.00059   0.00000  -0.00231  -0.00231   2.05717
    R8        2.67769   0.00651   0.00000   0.01312   0.01312   2.69081
    R9        2.58409   0.01494   0.00000   0.04962   0.04962   2.63371
   R10        2.33034   0.00667   0.00000  -0.01840  -0.01840   2.31194
   R11        2.53538   0.00373   0.00000   0.00887   0.00887   2.54425
   R12        2.84033   0.00043   0.00000   0.00078   0.00078   2.84111
   R13        2.04477  -0.00101   0.00000  -0.00324  -0.00324   2.04153
   R14        2.04394  -0.00115   0.00000  -0.00315  -0.00315   2.04079
   R15        2.06231  -0.00049   0.00000  -0.00137  -0.00137   2.06094
   R16        2.05642  -0.00047   0.00000  -0.00148  -0.00148   2.05494
   R17        2.06477  -0.00084   0.00000  -0.00266  -0.00266   2.06211
    A1        1.98807   0.00018   0.00000  -0.00135  -0.00129   1.98678
    A2        1.75147  -0.00046   0.00000  -0.00484  -0.00481   1.74666
    A3        2.02685  -0.00097   0.00000   0.00098   0.00098   2.02782
    A4        1.79943  -0.00060   0.00000  -0.00112  -0.00110   1.79833
    A5        2.03291  -0.00057   0.00000   0.00396   0.00387   2.03678
    A6        1.81083   0.00295   0.00000   0.00059   0.00056   1.81140
    A7        1.91949  -0.00033   0.00000  -0.00015  -0.00014   1.91935
    A8        1.92199  -0.00054   0.00000  -0.00097  -0.00099   1.92099
    A9        1.92862   0.00149   0.00000   0.00691   0.00691   1.93552
   A10        1.92789  -0.00028   0.00000  -0.00179  -0.00179   1.92610
   A11        1.84470  -0.00063   0.00000  -0.00785  -0.00785   1.83685
   A12        1.91993   0.00029   0.00000   0.00369   0.00368   1.92361
   A13        1.89722   0.00171   0.00000  -0.00812  -0.00813   1.88910
   A14        1.80507   0.00710   0.00000   0.00241   0.00241   1.80749
   A15        2.11571  -0.00002   0.00000  -0.00158  -0.00158   2.11413
   A16        2.03778   0.00080   0.00000   0.00739   0.00739   2.04516
   A17        2.12769  -0.00076   0.00000  -0.00561  -0.00561   2.12209
   A18        2.11813   0.00017   0.00000   0.00070   0.00070   2.11883
   A19        2.11236   0.00015   0.00000   0.00054   0.00054   2.11290
   A20        2.05270  -0.00032   0.00000  -0.00124  -0.00124   2.05146
   A21        1.92767   0.00019   0.00000   0.00175   0.00175   1.92941
   A22        1.95062   0.00019   0.00000  -0.00010  -0.00010   1.95052
   A23        1.92484   0.00049   0.00000   0.00382   0.00382   1.92865
   A24        1.89535  -0.00031   0.00000  -0.00240  -0.00240   1.89295
   A25        1.86472  -0.00022   0.00000  -0.00027  -0.00028   1.86444
   A26        1.89825  -0.00038   0.00000  -0.00296  -0.00296   1.89529
   A27        3.09686   0.00520   0.00000   0.02688   0.02686   3.12372
   A28        2.96378   0.00235   0.00000   0.04439   0.04441   3.00818
    D1       -1.44014  -0.00088   0.00000  -0.04801  -0.04807  -1.48821
    D2        2.77848   0.00037   0.00000  -0.04058  -0.04043   2.73805
    D3        0.63285  -0.00077   0.00000  -0.04129  -0.04139   0.59146
    D4        0.37332   0.00063   0.00000   0.00538   0.00538   0.37869
    D5       -2.83500   0.00080   0.00000   0.00848   0.00848  -2.82652
    D6        2.79011  -0.00108   0.00000   0.00950   0.00951   2.79962
    D7       -0.41821  -0.00091   0.00000   0.01259   0.01261  -0.40560
    D8       -1.52968  -0.00019   0.00000   0.01039   0.01036  -1.51931
    D9        1.54519  -0.00001   0.00000   0.01348   0.01347   1.55866
   D10        1.07988   0.00012   0.00000   0.01859   0.01861   1.09849
   D11       -3.12734   0.00016   0.00000   0.01748   0.01748  -3.10987
   D12       -1.04596  -0.00038   0.00000   0.01279   0.01277  -1.03319
   D13       -1.72632  -0.00362   0.00000  -0.01956  -0.01956  -1.74588
   D14        3.09008   0.00012   0.00000   0.00384   0.00384   3.09392
   D15       -0.05240  -0.00005   0.00000   0.00238   0.00237  -0.05003
   D16        0.01868  -0.00012   0.00000   0.00008   0.00009   0.01877
   D17       -3.12380  -0.00030   0.00000  -0.00138  -0.00138  -3.12518
   D18        1.16339  -0.00006   0.00000  -0.01139  -0.01139   1.15200
   D19       -3.00766  -0.00019   0.00000  -0.01330  -0.01330  -3.02096
   D20       -0.89380  -0.00021   0.00000  -0.01449  -0.01449  -0.90829
   D21       -2.04542   0.00015   0.00000  -0.00810  -0.00810  -2.05352
   D22        0.06671   0.00001   0.00000  -0.01001  -0.01001   0.05670
   D23        2.18058   0.00000   0.00000  -0.01120  -0.01120   2.16937
         Item               Value     Threshold  Converged?
 Maximum Force            0.014942     0.000450     NO 
 RMS     Force            0.002581     0.000300     NO 
 Maximum Displacement     0.173209     0.001800     NO 
 RMS     Displacement     0.063074     0.001200     NO 
 Predicted change in Energy=-5.795787D-04
 GradGradGradGradGradGradGradGradGradGradGradGradGradGradGradGradGradGrad

                          Input orientation:                          
 ---------------------------------------------------------------------
 Center     Atomic      Atomic             Coordinates (Angstroms)
 Number     Number       Type             X           Y           Z
 ---------------------------------------------------------------------
      1          6           0       -0.924696   -1.422452    0.015662
      2          1           0       -0.870056   -2.026773    0.914778
      3          1           0       -1.286118   -1.961947   -0.854162
      4          6           0        1.873347    1.180668   -0.335882
      5          1           0        0.936592    1.357191   -0.861631
      6          1           0        2.076771    2.002624    0.346849
      7          1           0        2.687599    1.071238   -1.050089
      8          8           0        1.782879    0.023051    0.488296
      9          8           0        1.562864   -1.081107   -0.333177
     10          1           0        0.358175   -1.272789   -0.239592
     11          6           0       -1.403839   -0.064692    0.185530
     12          6           0       -1.348220    0.548373    1.382917
     13          1           0       -1.663541    1.574411    1.505117
     14          1           0       -0.987557    0.029182    2.258491
     15          6           0       -1.884191    0.653054   -1.045107
     16          1           0       -2.782958    0.177425   -1.439329
     17          1           0       -2.108591    1.697297   -0.840904
     18          1           0       -1.130781    0.606757   -1.833139
 ---------------------------------------------------------------------
                    Distance matrix (angstroms):
                    1          2          3          4          5
     1  C    0.000000
     2  H    1.084712   0.000000
     3  H    1.085483   1.818367   0.000000
     4  C    3.837820   4.402055   4.486297   0.000000
     5  H    3.458389   4.227389   3.994643   1.088614   0.000000
     6  H    4.566140   5.024179   5.335660   1.087711   1.782419
     7  H    4.516967   5.110311   5.002901   1.088610   1.784183
     8  O    3.105451   3.379605   3.893732   1.423915   2.078084
     9  O    2.534987   2.893229   3.027210   2.282989   2.572310
    10  H    1.316553   1.846514   1.885824   2.885216   2.763746
    11  C    1.449808   2.160206   2.166655   3.544396   2.931879
    12  C    2.435757   2.660672   3.363047   3.705748   3.303415
    13  H    3.427179   3.734521   4.267841   4.006731   3.522694
    14  H    2.672354   2.458927   3.707066   4.030070   3.898861
    15  C    2.520633   3.471469   2.689309   3.860112   2.913123
    16  H    2.851270   3.749601   2.675792   4.889301   3.944697
    17  H    3.445018   4.299429   3.750561   4.046947   3.064187
    18  H    2.752858   3.815037   2.753319   3.405281   2.404374
                    6          7          8          9         10
     6  H    0.000000
     7  H    1.786624   0.000000
     8  O    2.006263   2.069745   0.000000
     9  O    3.199365   2.532110   1.393697   0.000000
    10  H    3.745106   3.402585   2.058835   1.223428   0.000000
    11  C    4.051477   4.422325   3.202271   3.178598   2.178284
    12  C    3.862493   4.741386   3.298499   3.751613   2.976735
    13  H    3.938894   5.070964   3.913880   4.565172   3.903574
    14  H    4.115696   5.053647   3.287696   3.801859   3.121945
    15  C    4.410000   4.590878   4.024380   3.923818   3.063647
    16  H    5.489877   5.556744   4.958471   4.657644   3.661858
    17  H    4.361335   4.841399   4.439979   4.632159   3.907419
    18  H    4.121794   3.925422   3.770835   3.514897   2.879076
                   11         12         13         14         15
    11  C    0.000000
    12  C    1.346357   0.000000
    13  H    2.120239   1.080330   0.000000
    14  H    2.116428   1.079938   1.847230   0.000000
    15  C    1.503452   2.488679   2.720520   3.479501   0.000000
    16  H    2.144938   3.187655   3.445929   4.113309   1.090604
    17  H    2.157510   2.616022   2.391022   3.693992   1.087427
    18  H    2.144862   3.223927   3.516268   4.134676   1.091221
                   16         17         18
    16  H    0.000000
    17  H    1.767171   0.000000
    18  H    1.751884   1.769158   0.000000
 Stoichiometry    C5H11O2(2)
 Framework group  C1[X(C5H11O2)]
 Deg. of freedom    48
 Full point group                 C1      NOp   1
 Largest Abelian subgroup         C1      NOp   1
 Largest concise Abelian subgroup C1      NOp   1
[...]
 678659,0.2694938,-0.6424443,-0.0379449,-0.1854045,0.588569,0.2112311,-
 0.0803567,1.1014298,-0.0770715,-0.0880143,0.7946277,0.1398037,-0.31232
 73,-1.2596147,-0.2377261,0.2426451,-0.3460842,0.0419924,0.0258772,0.10
 13716,0.007945,0.0858082,-0.2800749,-0.1420758,0.0699038,0.4638616,-0.
 054992,-0.1627591,0.7453796,-0.1364119,0.0987316,-0.2601072,-0.0634115
 ,0.0808713,-0.1688196,0.067297,-0.0165268,-0.3881052,0.0483294,-0.0512
 317,0.1351806,0.0653807,-0.0066971,0.0854018,-0.0611022,-0.034321,-0.0
 238174,0.021404,0.0561424,0.0769896,0.0381476,-0.0581379,0.0346698,0.0
 092863,0.0692008,-0.0222155,0.0255075,-0.0211003,0.0993467,0.0502365,-
 0.0443308,-0.0010684,0.0815602,0.0202792,-0.0238227,0.0660214,-0.03878
 84,-0.0584427,-0.0412416,-0.0927892,-0.0830275,0.0162194,-0.0114052,-0
 .0661815,0.0023364,0.0145295,0.0549071,0.0267719,-0.010726,0.0642565,-
 0.1039988,0.0114356,0.0132413,-0.0657776,0.0268584,-0.0243794,0.005855
 4,0.1115074,0.0323785,0.0506385,0.0219823,0.0309163,0.010674,-0.033000
 7\Polar=108.2426835,1.9125049,78.3069209,-8.3446895,6.0190352,74.81679
 38\PG=C01 [X(C5H11O2)]\NImag=1\\0.15967304,-0.01021744,0.55627948,0.10
 652901,-0.00000823,0.59964756,-0.01987503,-0.00184310,-0.00752495,0.03
 060104,0.01005658,-0.14030868,0.12501056,-0.01019562,0.14592294,-0.016
 22288,0.12841660,-0.24537281,0.01184760,-0.13913949,0.25707571,-0.0539
 0900,-0.04934667,-0.08980825,0.00030955,-0.00009742,0.00181963,0.06302
 699,-0.03737239,-0.11923739,-0.10651599,0.00634292,0.01054707,0.013959
 35,0.04413101,0.12327265,-0.07957485,-0.10521683,-0.23132363,-0.008497
 28,-0.01334348,-0.01509369,0.08567570,0.11933261,0.24509914,0.00053299
 ,-0.00094736,0.00095911,-0.00036132,0.00010476,-0.00010590,0.00024596,
 0.00000054,-0.00006604,0.58543206,-0.01165173,0.00185726,0.00464629,0.
 00140935,0.00008306,-0.00007489,0.00213053,0.00039598,-0.00068149,-0.0
 0750889,0.48945609,0.00601524,-0.00086709,-0.00220958,-0.00084184,-0.0
 0002735,-0.00011876,-0.00092613,-0.00026096,0.00039368,0.01149537,0.08
 802051,0.56913280,-0.00067948,-0.00013533,0.00028814,0.00008341,0.0000
 0661,0.00001006,0.00021190,0.00003654,-0.00006275,-0.25419644,0.029896
 32,-0.10934952,0.26850801,0.00167751,-0.00030688,-0.00084395,-0.000137
 86,-0.00000183,-0.00000783,-0.00034355,-0.00006195,0.00009740,0.025873
 98,-0.05222228,0.00861441,-0.03353750,0.05909818,-0.00244716,0.0008426
 0,0.00103975,0.00021030,-0.00000229,0.00001144,0.00033556,0.00003355,-
 0.00014768,-0.10489238,0.01371638,-0.10662153,0.12021174,-0.02536640,0
 .11942917,0.00040166,-0.00017963,-0.00012245,-0.00004896,-0.00000863,0
 .00001443,-0.00005621,0.00001989,0.00003377,-0.06063058,-0.03773229,-0
 .03107709,-0.00331600,-0.02143535,-0.01670429,0.05725446,0.00086388,-0
 .00028877,-0.00026477,-0.00014240,-0.00000061,-0.00004890,-0.00009444,
 -0.00003406,0.00005760,-0.03667022,-0.19761202,-0.12197381,0.00077291,
 0.00596321,0.00277900,0.04354684,0.22667987,-0.00000851,0.00001968,-0.
 00003901,0.00001630,-0.00000305,0.00002411,-0.00000894,0.00001613,-0.0
 0000763,-0.03338266,-0.13403962,-0.16209310,-0.00061669,-0.01098535,-0
 .00780563,0.03459545,0.13597064,0.16619381,0.00061543,0.00001769,-0.00
 020711,-0.00005903,-0.00002975,0.00001581,-0.00013146,-0.00004020,0.00
 002847,-0.20634711,0.03169408,0.12552379,-0.01974849,0.00556662,0.0179
 5548,0.00651427,-0.00046410,-0.00582524,0.21548688,0.00084810,-0.00013
 494,-0.00057031,-0.00006058,0.00001538,0.00002243,-0.00027111,-0.00000
 973,0.00006475,0.03539116,-0.05505407,-0.03446673,0.00170429,0.0013115
 5,-0.00328524,0.01916933,-0.00106860,-0.01402919,-0.03203025,0.0604081
 5,-0.00211774,0.00046048,0.00069097,0.00027036,0.00000335,-0.00000723,
 0.00032255,0.00006313,-0.00010379,0.12397383,-0.02724704,-0.15339488,-
 0.01235191,0.00154125,0.01138786,0.01450101,-0.00254998,-0.01027424,-0
 .14060884,0.02028883,0.17179720,-0.00209825,0.00356290,-0.00324863,0.0
 0050007,-0.00008640,0.00021310,-0.00118778,0.00000014,0.00074293,-0.06
 262812,-0.00904293,0.00716745,0.00962072,0.02295872,-0.01815642,-0.001
 07377,-0.00625123,0.00438644,0.00406367,-0.02506485,0.01686136,0.08980
 357,0.04082236,-0.00499222,-0.01422764,-0.00473039,-0.00092877,0.00064
 749,-0.00539190,-0.00118486,0.00215403,-0.00604764,-0.12289323,0.09094
 536,0.00170685,-0.02077193,0.01574836,-0.00334180,-0.02772115,0.016570
 85,-0.00597670,-0.01207602,0.01119504,0.05942578,0.35613841,0.02632169
 ,-0.00426868,-0.00852095,-0.00336106,-0.00064159,0.00055308,-0.0033319
 2,-0.00059617,0.00132700,-0.00005075,0.06072325,-0.16282003,0.00101413
 ,0.02413139,-0.01704698,-0.00238418,-0.01869192,0.01258277,0.00334449,
 0.02869902,-0.02049975,0.02114137,-0.02444967,0.30621778,-0.14377768,0
 .00485654,0.03274821,0.00939805,0.00165597,-0.00092521,0.00958759,0.00
 154926,-0.00431956,-0.00257667,-0.01807748,-0.00138875,0.00054693,0.00
 338797,0.00029837,0.00147011,-0.00118420,0.00123939,0.00100631,0.00190
 324,-0.00389684,-0.03419053,-0.00289836,0.00715115,0.06696242,-0.06114
 859,0.01045232,0.01784309,0.00634793,0.00143455,-0.00133837,0.00649780
 ,0.00129977,-0.00218068,-0.00731061,-0.06492300,-0.02865788,-0.0005296
 7,0.00705766,-0.00424140,-0.00048609,-0.00581930,0.00638241,0.00131370
 ,0.00702921,-0.00395987,-0.02176202,-0.15236574,-0.06141801,-0.0086637
 8,0.21553294,-0.02009493,0.00584452,0.01044829,0.00328305,0.00007569,0
 .00050571,0.00414504,0.00098293,-0.00072184,0.00118297,-0.00262047,0.0
 1728636,0.00087176,0.00200954,0.00001342,0.00125288,0.00434473,0.00139
 326,-0.00053705,0.00327455,0.00094030,-0.01282481,-0.10137908,-0.11604
 420,-0.02919782,0.09649924,0.11080766,0.10982176,-0.02693166,-0.032006
 92,-0.01871132,-0.00302648,0.00157758,-0.02157160,-0.00421228,0.006575
 76,0.00057177,0.01879355,-0.00652199,0.00127333,-0.00302121,0.00312953
 ,-0.00052710,-0.00002275,-0.00051859,-0.00107853,-0.00192446,0.0030389
 8,-0.00492086,-0.06811667,-0.04588069,0.08164093,0.07560898,0.04650285
 ,-0.11267631,0.02823775,-0.03155425,-0.00802939,-0.01204161,-0.0022847
 1,0.00339975,-0.01147324,-0.00214519,0.00221131,-0.00297525,0.00324461
 ,-0.00354741,0.00075450,-0.00056789,0.00112231,0.00021588,-0.00059010,
 0.00020517,-0.00000788,-0.00047638,0.00075955,-0.01924605,-0.02369464,
 -0.01093344,0.03932047,-0.00469020,-0.00087191,-0.03120917,0.05639694,
 -0.00749655,0.00247581,-0.02110407,0.01467951,0.00332458,-0.00489082,-
 0.01167812,-0.00207169,0.00037092,0.00093207,-0.00120161,0.00033108,-0
 .00032495,0.00046389,0.00004290,-0.00013142,0.00008550,0.00010051,-0.0
 0001000,-0.00000528,-0.00036227,-0.01515446,-0.00338077,0.00028230,0.0
 0537757,-0.01141026,-0.02095747,0.00865289,0.01736073,0.04992723,-0.06
 349611,0.06370566,-0.00513307,-0.00281819,-0.00055168,0.00058864,0.003
 45490,-0.01315597,-0.00098680,0.00003150,0.00028084,0.00016143,-0.0009
 2235,-0.00075023,0.00060546,0.00007583,-0.00024096,0.00002035,-0.00019
 278,0.00017551,0.00011344,0.00231041,-0.00433685,-0.00342329,0.0093385
 7,0.00926519,0.00439819,-0.03399397,0.01015488,0.00531429,0.23259194,0
 .00936279,-0.21995073,-0.00599476,0.01395566,-0.01085806,-0.00367267,0
 .01308591,-0.00801899,-0.00271020,-0.00035020,-0.00133466,0.00099122,0
 .00027677,0.00042929,-0.00100402,0.00021392,0.00050104,-0.00001123,0.0
 0031306,-0.00025414,-0.00035947,-0.00724107,0.00970096,0.00732663,-0.0
 2498353,-0.01732834,-0.00809092,0.05475240,0.01169866,-0.00593776,-0.1
 0371085,0.52202189,-0.03649030,0.00371610,-0.08767326,-0.00795320,0.02
 758826,0.00489807,0.01456342,-0.02287092,-0.00326531,0.00032830,-0.004
 18909,0.00303620,0.00046516,0.00125637,-0.00152019,-0.00017466,0.00076
 917,-0.00023972,0.00027978,-0.00006574,-0.00085640,-0.00416993,0.01275
 457,0.00740103,-0.01476432,-0.01692510,-0.00990766,0.03837510,0.005403
 90,-0.00447243,0.07276078,0.08933252,0.71421151,0.00811568,0.00834628,
 0.01142862,-0.00128580,0.00035264,0.00049591,0.00116489,0.00249314,-0.
 00079634,0.00012436,-0.00040599,0.00012262,-0.00020907,-0.00003215,-0.
 00022580,0.00022454,-0.00002022,0.00009988,-0.00013826,0.00033670,-0.0
 0010106,-0.00024612,-0.00011525,-0.00033823,0.00035737,0.00036767,0.00
 037590,-0.00078525,-0.00049548,0.00016901,-0.06222276,0.01301828,-0.01
 783342,0.17841952,0.01529428,-0.03363186,-0.03852555,-0.00218990,0.000
 70112,-0.00132130,0.00182798,-0.00591222,-0.00061221,0.00018492,-0.000
 41374,0.00062574,-0.00039730,-0.00004572,0.00005106,0.00006049,0.00000
 061,-0.00005431,-0.00023387,0.00021368,-0.00005489,0.00197078,0.000665
 36,0.00044358,0.00213411,0.00145708,0.00032981,-0.00825987,-0.00429635
 ,-0.00066669,0.00712343,-0.16253958,-0.15045215,-0.16452683,0.63351877
 ,0.03026765,-0.03268100,-0.01264536,-0.00261729,-0.00003676,0.00080348
 ,-0.00280416,-0.00046450,0.00198622,0.00031885,0.00225992,-0.00186745,
 -0.00024576,-0.00057032,0.00077295,0.00000874,-0.00047040,0.00007694,-
 0.00019429,0.00015018,0.00048612,0.00316547,-0.00715743,-0.00470173,0.
 00951245,0.01100994,0.00624618,-0.02514447,-0.00772682,0.00198684,-0.0
 2903982,-0.12121750,-0.40331892,0.09816578,0.08454352,0.74666351,0.008
 13478,0.00116598,-0.00080344,-0.00022759,-0.00000087,-0.00036975,-0.00
 064579,0.00081002,0.00040955,0.00000270,0.00000675,0.00003480,0.000068
 35,0.00009209,0.00011265,-0.00015235,-0.00002312,-0.00003876,0.0000688
 3,-0.00007492,-0.00001384,-0.00006547,0.00053341,0.00029786,-0.0004425
 7,-0.00081186,-0.00047499,0.00149320,-0.00044028,-0.00041660,0.0052372
 2,0.00090571,-0.00133206,-0.06143437,0.08965696,0.00504554,0.05282587,
 0.00050321,0.00110849,-0.00258413,-0.00007006,0.00045079,-0.00004484,0
 .00044569,-0.00015565,-0.00017478,0.00002203,-0.00035764,0.00017949,-0
 .00001493,0.00002190,-0.00008513,0.00004484,0.00005176,0.00000111,0.00
 000536,0.00005036,-0.00006093,0.00011620,0.00069317,0.00026512,-0.0005
 5353,-0.00060072,-0.00044016,0.00120091,0.00006240,-0.00012915,0.00630
 065,-0.01115179,0.00154149,0.08877299,-0.31094658,-0.03148301,-0.09743
 954,0.32783251,-0.00248801,-0.00158858,-0.00437171,-0.00001821,-0.0002
 5722,0.00021139,0.00075166,-0.00152866,0.00002533,0.00004103,-0.000016
 67,0.00011529,-0.00003386,-0.00004151,-0.00005493,0.00002981,0.0000079
 5,0.00000609,-0.00003405,0.00000089,-0.00000818,0.00005938,0.00013171,
 0.00010175,0.00008392,-0.00005256,-0.00005041,-0.00040395,0.00006905,-
 0.00000902,0.00888084,-0.02768433,-0.00013903,0.00322809,-0.02607565,-
 0.06017764,-0.00505204,0.03573583,0.05740912,-0.00412292,-0.00082018,0
 .00078309,0.00037544,-0.00041719,0.00046143,0.00007504,-0.00035975,-0.
 00012418,-0.00007451,0.00029617,-0.00007852,-0.00002407,-0.00004881,0.
 00003360,-0.00003893,-0.00007185,0.00001508,-0.00002956,-0.00005152,0.
 00002690,0.00011317,-0.00130588,-0.00065454,0.00095391,0.00144640,0.00
 081418,-0.00210843,-0.00009281,0.00043414,0.00267269,0.00055191,-0.000
 87736,-0.06710695,0.05419229,-0.08097310,0.00045435,0.00298879,-0.0066
 3340,0.05906791,-0.00132027,0.00073264,-0.00112425,-0.00022784,-0.0001
 1949,0.00032394,-0.00000424,-0.00006599,0.00007177,0.00002250,0.000104
 25,0.00007947,-0.00003074,-0.00004863,-0.00002415,-0.00000911,-0.00004
 787,0.00002232,-0.00002655,-0.00001246,-0.00000577,0.00016551,-0.00057
 858,-0.00045531,0.00061626,0.00064851,0.00034159,-0.00114001,-0.000110
 53,0.00010019,-0.00478843,0.00900543,-0.01321997,0.05454099,-0.1269233
 1,0.11530995,0.00822235,-0.00835733,0.02169025,-0.05891410,0.12470773,
 0.00042493,0.00204633,0.00122721,0.00015730,-0.00096546,0.00014922,-0.
 00004182,0.00000074,0.00047263,-0.00007673,0.00017431,-0.00013858,0.00
 003496,-0.00002362,0.00001329,0.00003748,0.00001848,0.00000225,0.00000
 988,-0.00004028,0.00005320,-0.00032255,0.00042226,0.00055761,-0.000356
 46,-0.00072724,-0.00032946,0.00085338,0.00007945,-0.00034161,-0.010036
 23,0.01633491,-0.02039968,-0.07922262,0.11014123,-0.24066481,0.0018798
 7,-0.00400952,0.00585489,0.08817604,-0.11996656,0.25644864,-0.00157757
 ,0.00852942,-0.01052648,0.00170059,0.00154142,0.00049214,-0.00004703,-
 0.00058309,0.00018204,0.00016816,-0.00008763,0.00016514,-0.00082939,-0
 .00032584,-0.00041041,0.00003300,0.00000195,0.00006537,-0.00009623,-0.
 00001500,-0.00006013,-0.00010359,-0.00015887,-0.00020314,0.00002493,0.
 00015607,0.00027955,0.00066192,-0.00038144,-0.00039583,-0.09055655,0.0
 2298171,-0.03403960,0.00622088,0.00205977,-0.00439324,-0.00600222,-0.0
 0212373,0.00197705,0.01047082,0.00355986,-0.00120567,0.53696007,0.0122
 6362,-0.02083316,0.02730151,0.00346109,-0.00427664,-0.00071563,-0.0005
 3804,0.00152826,0.00108318,0.00026152,-0.00030839,0.00023698,-0.000398
 19,0.00020752,-0.00009661,-0.00012532,-0.00000957,-0.00008745,-0.00013
 266,0.00002768,-0.00006091,0.00029527,0.00016076,-0.00002372,0.0000478
 2,0.00024726,0.00009788,-0.00095696,-0.00063544,0.00013601,0.02500198,
 -0.11528821,0.05463574,-0.00308992,0.00927463,-0.01159582,-0.00232087,
 0.00005406,-0.00138593,0.00284606,-0.00002696,-0.00389801,-0.00293615,
 0.57412890,-0.00478744,0.00252981,0.00414249,0.00122822,-0.00263519,0.
 00079165,0.00097213,-0.00079477,0.00028226,0.00005741,-0.00083260,0.00
 007204,0.00025611,0.00044360,0.00035581,-0.00021353,0.00010090,-0.0001
 3463,0.00003814,0.00002222,-0.00010336,-0.00000714,0.00172220,0.001177
 11,-0.00266478,-0.00200939,-0.00110701,0.00447362,0.00085370,-0.000719
 37,-0.03237708,0.04696779,-0.16801440,-0.01284146,0.01480879,-0.031800
 97,0.00078775,0.00170440,0.00128761,-0.00159617,-0.00257707,-0.0015747
 9,-0.01706471,0.03967651,0.50767327,0.00066972,-0.00076095,-0.00058345
 ,0.00039186,0.00020449,0.00013542,-0.00021574,0.00058337,0.00029590,0.
 00031511,-0.00028445,0.00024448,-0.00008634,0.00014880,-0.00007866,-0.
 00008420,0.00002586,-0.00005139,-0.00008831,0.00002254,-0.00005960,0.0
 0003967,0.00026431,0.00007963,-0.00009627,-0.00004200,-0.00012288,0.00
 006966,-0.00019748,0.00006028,-0.00687844,-0.00300831,-0.00327622,-0.0
 0030335,0.00096899,-0.00054260,-0.00007158,-0.00002865,0.00003124,0.00
 031141,-0.00004550,-0.00018955,-0.22119225,-0.09585932,-0.07954647,0.2
 3980202,0.00089008,0.00052903,0.00033260,-0.00043529,-0.00005270,-0.00
 011567,-0.00021282,-0.00026635,-0.00009126,0.00013253,-0.00005146,0.00
 019709,-0.00004307,-0.00009484,-0.00007494,0.00001204,0.00000077,0.000
 00005,-0.00003985,0.00001634,-0.00002342,0.00001850,-0.00012576,-0.000
 24601,0.00050802,0.00032754,0.00002704,-0.00094319,-0.00003040,0.00035
 017,0.01488437,0.00812185,0.00491174,0.00026245,-0.00079683,0.00096863
 ,-0.00002358,0.00022428,0.00015107,-0.00078291,0.00003171,0.00036978,-
 0.09511285,-0.10120868,-0.04267180,0.10547159,0.10596517,0.00210906,-0
 .00168142,-0.00009323,0.00039976,0.00004472,-0.00000634,-0.00029923,0.
 00028892,0.00057192,-0.00015721,0.00041277,-0.00036592,0.00004995,-0.0
 0011845,0.00002133,0.00008976,-0.00004440,0.00005356,0.00004978,-0.000
 00129,0.00008071,0.00011564,-0.00051488,-0.00009464,0.00040259,0.00046
 244,0.00036546,-0.00095541,-0.00046555,0.00014338,-0.02425674,-0.01136
 088,-0.01365156,-0.00107318,0.00256705,-0.00269731,-0.00111534,-0.0003
 0152,0.00023152,0.00195853,0.00049460,-0.00116800,-0.08027579,-0.04396
 764,-0.07757744,0.08865936,0.04554001,0.08836981,0.00134495,0.00097964
 ,-0.00281393,-0.00007057,0.00076967,0.00002794,-0.00019737,-0.00002009
 ,0.00025707,-0.00012840,0.00019417,-0.00034886,0.00003408,0.00017916,0
 .00022696,-0.00006171,-0.00002003,-0.00002377,0.00009600,-0.00003857,0
 .00008138,0.00006443,-0.00034540,-0.00000083,0.00015277,0.00019804,0.0
 0008071,-0.00000715,-0.00037585,0.00014398,-0.00417945,0.01012440,0.00
 290608,-0.00019707,-0.00020885,0.00087971,0.00043357,-0.00022155,-0.00
 027848,-0.00016424,-0.00020369,0.00012757,-0.06027519,0.05451797,0.011
 77038,0.00724828,-0.02602449,-0.00525451,0.06049260,0.00008887,-0.0004
 4598,0.00335050,0.00070443,-0.00057915,-0.00005565,-0.00007236,0.00042
 946,0.00008909,0.00003999,-0.00026017,0.00025479,0.00004851,-0.0000427
 5,-0.00008335,0.00003648,0.00002738,0.00000789,-0.00002449,0.00003689,
 -0.00006280,0.00012268,0.00046550,0.00013613,-0.00018302,-0.00026177,-
 0.00025295,0.00029202,0.00004714,0.00004664,0.00329287,-0.01505238,-0.
 00468169,-0.00069554,0.00089983,-0.00184695,-0.00018616,0.00076811,0.0
 0068339,-0.00006285,0.00041944,-0.00006522,0.05539953,-0.29387482,-0.0
 5199375,0.00350663,-0.01253111,-0.00252603,-0.06195869,0.31913290,-0.0
 0150162,0.00214170,-0.00457041,-0.00071103,0.00130696,0.00029630,0.000
 17801,0.00008574,-0.00001592,0.00002121,0.00001742,0.00005712,-0.00003
 762,-0.00009004,-0.00004635,0.00001436,-0.00000357,0.00002032,-0.00001
 854,-0.00001040,-0.00001736,-0.00008297,0.00007687,-0.00001467,-0.0000
 9553,-0.00013859,0.00004929,0.00023192,0.00012834,-0.00017909,-0.00623
 085,0.02719279,0.00602223,-0.00009275,0.00127804,0.00164742,0.00006639
 ,-0.00060713,-0.00033153,0.00015460,-0.00016710,0.00030817,0.01285677,
 -0.05571159,-0.06017855,0.00363553,-0.01026818,-0.00319981,-0.01128376
 ,0.05684747,0.06458327,0.00022602,0.00001822,0.00004250,0.00009779,-0.
 00027810,-0.00007595,-0.00011484,-0.00022304,0.00022659,-0.00048144,0.
 00008962,-0.00039761,-0.00033511,-0.00025234,-0.00020454,0.00001595,-0
 .00000593,0.00003629,0.00005840,-0.00001961,0.00002014,-0.00000122,0.0
 0001300,0.00027830,-0.00035616,-0.00044716,0.00006541,0.00084795,0.000
 25308,-0.00015580,0.00954755,-0.00024856,-0.00876752,-0.00069824,0.000
 34262,-0.00140946,0.00032307,0.00005132,-0.00014102,-0.00082515,-0.000
 41700,-0.00024978,-0.17556033,0.00766208,0.13151501,-0.01983126,0.0014
 3847,0.01955296,-0.00458551,-0.00034892,0.00289585,0.19167254,0.000801
 37,0.00072562,0.00020444,-0.00014674,0.00025570,-0.00023431,-0.0002731
 3,-0.00038082,-0.00015080,-0.00022376,0.00028940,-0.00034382,-0.000116
 58,0.00007538,-0.00002974,-0.00000149,-0.00003260,0.00001398,0.0000958
 1,-0.00002291,0.00007345,0.00005806,-0.00049126,-0.00000056,0.00056422
 ,0.00050220,-0.00017204,-0.00088316,-0.00037367,0.00045969,-0.01265039
 ,0.00029776,0.01049478,0.00089025,-0.00122489,0.00100837,-0.00007206,0
 .00025187,0.00016098,0.00060621,0.00064143,0.00010841,0.00749487,-0.04
 916720,-0.00531534,-0.01096990,-0.00005855,0.01117155,0.02245416,0.000
 82146,-0.02207872,-0.00762774,0.04789107,0.00156241,-0.00218181,0.0007
 2774,-0.00056754,-0.00030222,0.00016948,0.00013486,0.00034056,0.000150
 41,-0.00057848,0.00093263,-0.00079475,-0.00017895,-0.00051040,0.000155
 37,0.00022993,-0.00008621,0.00014034,0.00018949,-0.00004842,0.00019109
 ,0.00011376,-0.00125924,-0.00045749,0.00079564,0.00086224,0.00106213,-
 0.00197961,-0.00001872,-0.00014901,0.01864046,-0.00010212,-0.02211050,
 -0.00156097,0.00297394,-0.00279549,0.00098241,0.00049287,-0.00010053,-
 0.00192032,-0.00089390,-0.00047020,0.13255696,-0.00562449,-0.17457174,
 -0.00869102,0.00064313,0.00901657,0.00350236,0.00015248,-0.00443045,-0
 .14323140,0.00462967,0.19426703\\0.00000103,0.00000036,-0.00000029,-0.
 00000081,0.00000051,0.00000033,-0.00000027,-0.00000016,0.00000031,0.00
 000019,0.00000010,0.00000141,0.00000086,-0.00000045,0.00000019,0.00000
 002,-0.00000023,0.00000033,0.00000044,-0.00000073,0.00000081,0.0000033
 7,0.00000613,0.00000517,-0.00000114,-0.00000623,-0.00000468,-0.0000025
 5,-0.00000057,0.00000029,-0.00000080,-0.00000020,-0.00000005,-0.000000
 67,0.,-0.00000077,-0.00000026,0.00000056,-0.00000055,-0.00000078,0.000
 00035,-0.00000016,0.00000021,0.00000018,-0.00000065,0.00000023,0.00000
 041,-0.00000053,0.00000059,0.00000036,-0.00000070,0.00000035,-0.000000
 40,-0.00000044\\\@


 IF YOU WISH TO UNDERSTAND THE FRAGRANCE OF THE ROSE, 
 OR THE TENACITY OF THE OAK; 
 IF YOU ARE NOT SATISFIED UNTIL YOU KNOW THE SECRET PATHS 
 BY WHICH THE SUNSHINE AND THE AIR ACHIEVE THESE WONDERS; 
 IF YOU WISH TO SEE THE PATTERN WHICH UNDERLIES ONE LARGE FIELD OF 
 HUMAN EXPERIENCE AND HUMAN MEASUREMENT, THEN TAKE UP CHEMISTRY.

                                         -- C. A. COULSON, 1973.
 Job cpu time:       3 days  6 hours 48 minutes 32.6 seconds.
 Elapsed time:       0 days  2 hours  2 minutes 13.3 seconds.
 File lengths (MBytes):  RWF= 108510 Int=      0 D2E=      0 Chk=     21 Scr=      1
 Normal termination of Gaussian 16 at Tue Jun 11 03:08:32 2019.
