 Entering Gaussian System, Link 0=g16
 Initial command:
 /ichec/packages/gaussian/16b01/l1.exe "/localscratch/353445/Gau-96734.inp" -scrdir="/localscratch/353445/"
 Entering Link 1 = /ichec/packages/gaussian/16b01/l1.exe PID=     97008.
  
 Copyright (c) 1988-2017, Gaussian, Inc.  All Rights Reserved.
  
 This is part of the Gaussian(R) 16 program.  It is based on
 the Gaussian(R) 09 system (copyright 2009, Gaussian, Inc.),
 the Gaussian(R) 03 system (copyright 2003, Gaussian, Inc.),
 the Gaussian(R) 98 system (copyright 1998, Gaussian, Inc.),
 the Gaussian(R) 94 system (copyright 1995, Gaussian, Inc.),
 the Gaussian 92(TM) system (copyright 1992, Gaussian, Inc.),
 the Gaussian 90(TM) system (copyright 1990, Gaussian, Inc.),
 the Gaussian 88(TM) system (copyright 1988, Gaussian, Inc.),
 the Gaussian 86(TM) system (copyright 1986, Carnegie Mellon
 University), and the Gaussian 82(TM) system (copyright 1983,
 Carnegie Mellon University). Gaussian is a federally registered
 trademark of Gaussian, Inc.
  
 This software contains proprietary and confidential information,
 including trade secrets, belonging to Gaussian, Inc.
  
 This software is provided under written license and may be
 used, copied, transmitted, or stored only in accord with that
 written license.
  
 The following legend is applicable only to US Government
 contracts under FAR:
  
                    RESTRICTED RIGHTS LEGEND
  
 Use, reproduction and disclosure by the US Government is
 subject to restrictions as set forth in subparagraphs (a)
 and (c) of the Commercial Computer Software - Restricted
 Rights clause in FAR 52.227-19.
  
 Gaussian, Inc.
 340 Quinnipiac St., Bldg. 40, Wallingford CT 06492
  
  
 ---------------------------------------------------------------
 Warning -- This program may not be used in any manner that
 competes with the business of Gaussian, Inc. or will provide
 assistance to any competitor of Gaussian, Inc.  The licensee
 of this program is prohibited from giving any competitor of
 Gaussian, Inc. access to this program.  By using this program,
 the user acknowledges that Gaussian, Inc. is engaged in the
 business of creating and licensing software in the field of
 computational chemistry and represents and warrants to the
 licensee that it is not a competitor of Gaussian, Inc. and that
 it will not use this program in any manner prohibited above.
 ---------------------------------------------------------------
  

 Cite this work as:
 Gaussian 16, Revision B.01,
 M. J. Frisch, G. W. Trucks, H. B. Schlegel, G. E. Scuseria, 
 M. A. Robb, J. R. Cheeseman, G. Scalmani, V. Barone, 
 G. A. Petersson, H. Nakatsuji, X. Li, M. Caricato, A. V. Marenich, 
 J. Bloino, B. G. Janesko, R. Gomperts, B. Mennucci, H. P. Hratchian, 
 J. V. Ortiz, A. F. Izmaylov, J. L. Sonnenberg, D. Williams-Young, 
 F. Ding, F. Lipparini, F. Egidi, J. Goings, B. Peng, A. Petrone, 
 T. Henderson, D. Ranasinghe, V. G. Zakrzewski, J. Gao, N. Rega, 
 G. Zheng, W. Liang, M. Hada, M. Ehara, K. Toyota, R. Fukuda, 
 J. Hasegawa, M. Ishida, T. Nakajima, Y. Honda, O. Kitao, H. Nakai, 
 T. Vreven, K. Throssell, J. A. Montgomery, Jr., J. E. Peralta, 
 F. Ogliaro, M. J. Bearpark, J. J. Heyd, E. N. Brothers, K. N. Kudin, 
 V. N. Staroverov, T. A. Keith, R. Kobayashi, J. Normand, 
 K. Raghavachari, A. P. Rendell, J. C. Burant, S. S. Iyengar, 
 J. Tomasi, M. Cossi, J. M. Millam, M. Klene, C. Adamo, R. Cammi, 
 J. W. Ochterski, R. L. Martin, K. Morokuma, O. Farkas, 
 J. B. Foresman, and D. J. Fox, Gaussian, Inc., Wallingford CT, 2016.
 
 ******************************************
 Gaussian 16:  ES64L-G16RevB.01 20-Dec-2017
                25-Jun-2019 
 ******************************************
 %mem=80GB
 %nproc=40
 Will use up to   40 processors via shared memory.
 ----------------------------------------------------------------------
 # opt=(calcfc,ts,noeigentest,maxcyc=500) freq=noraman uB2PLYPD3/cc-pvt
 z
 ----------------------------------------------------------------------
 1/5=1,6=500,10=4,11=1,18=20,38=1/1,3;
 2/9=110,12=2,17=6,18=5,40=1/2;
 3/5=16,6=1,11=2,25=1,30=1,71=2,74=-60,116=2,140=1/1,2,3;
 4//1;
 5/5=2,38=5/2;
 8/6=3,8=1,10=1,19=11,30=-1/1;
 9/15=3,16=-3/6;
 11/6=1,8=1,15=11,17=12,24=-1,27=1,28=-2,29=300,32=6,42=3/1,2,10;
 10/6=2,21=1/2;
 8/6=4,8=1,10=1,19=11,30=-1/11,4;
 10/5=1,20=4/2;
 11/12=2,14=11,16=1,17=2,28=-2,42=3,76=2/2,10,12;
 6/7=2,8=2,9=2,10=2/1;
 7/10=1,12=2,25=1,44=2/1,2,3,16;
 1/5=1,6=500,10=4,11=1,18=20/3(2);
 2/9=110/2;
 99//99;
 2/9=110/2;
 3/5=16,6=1,11=2,25=1,30=1,71=1,74=-60,116=2/1,2,3;
 4/5=5,16=3,69=1/1;
 5/5=2,38=5/2;
 8/6=4,10=1/1;
 9/15=2,16=-3/6;
 10/5=1/2;
 7/12=2/1,2,3,16;
 1/5=1,6=500,11=1,18=20/3(-8);
 2/9=110/2;
 6/7=2,8=2,9=2,10=2/1;
 99/9=10/99;
 -------------------
 Title Card Required
 -------------------
 Symbolic Z-matrix:
 Charge =  0 Multiplicity = 2
 C                     0.93811   1.37844  -0.06552 
 H                     0.81098   1.98569   0.82422 
 H                     1.3404    1.92312  -0.91481 
 C                    -2.00854  -1.13058  -0.12449 
 H                    -1.02486  -1.49463  -0.41463 
 H                    -2.38567  -1.70981   0.7155 
 H                    -2.69714  -1.19402  -0.96537 
 O                    -1.93333   0.21032   0.35174 
 O                    -1.48688   1.01808  -0.69752 
 H                    -0.30686   1.20603  -0.43771 
 C                     1.44761   0.03428   0.14148 
 C                     1.44715  -0.52827   1.36325 
 H                     1.79206  -1.54049   1.51749 
 H                     1.10742   0.02066   2.22935 
 C                     1.89376  -0.72144  -1.07832 
 H                     2.73085  -0.21563  -1.56071 
 H                     2.19809  -1.73636  -0.83406 
 H                     1.08507  -0.76657  -1.80977 
 
 Add virtual bond connecting atoms H10        and O9         Dist= 2.31D+00.
 Add virtual bond connecting atoms H10        and C1         Dist= 2.48D+00.

 GradGradGradGradGradGradGradGradGradGradGradGradGradGradGradGradGradGrad
 Berny optimization.
 Initialization pass.
                           ----------------------------
                           !    Initial Parameters    !
                           ! (Angstroms and Degrees)  !
 --------------------------                            --------------------------
 ! Name  Definition              Value          Derivative Info.                !
 --------------------------------------------------------------------------------
 ! R1    R(1,2)                  1.0847         calculate D2E/DX2 analytically  !
 ! R2    R(1,3)                  1.0862         calculate D2E/DX2 analytically  !
 ! R3    R(1,10)                 1.3108         calculate D2E/DX2 analytically  !
 ! R4    R(1,11)                 1.4523         calculate D2E/DX2 analytically  !
 ! R5    R(4,5)                  1.0883         calculate D2E/DX2 analytically  !
 ! R6    R(4,6)                  1.0878         calculate D2E/DX2 analytically  !
 ! R7    R(4,7)                  1.0887         calculate D2E/DX2 analytically  !
 ! R8    R(4,8)                  1.4249         calculate D2E/DX2 analytically  !
 ! R9    R(8,9)                  1.3974         calculate D2E/DX2 analytically  !
 ! R10   R(9,10)                 1.2228         calculate D2E/DX2 analytically  !
 ! R11   R(11,12)                1.3451         calculate D2E/DX2 analytically  !
 ! R12   R(11,15)                1.5027         calculate D2E/DX2 analytically  !
 ! R13   R(12,13)                1.0804         calculate D2E/DX2 analytically  !
 ! R14   R(12,14)                1.0802         calculate D2E/DX2 analytically  !
 ! R15   R(15,16)                1.0905         calculate D2E/DX2 analytically  !
 ! R16   R(15,17)                1.0874         calculate D2E/DX2 analytically  !
 ! R17   R(15,18)                1.0913         calculate D2E/DX2 analytically  !
 ! A1    A(2,1,3)              113.8312         calculate D2E/DX2 analytically  !
 ! A2    A(2,1,10)             101.2579         calculate D2E/DX2 analytically  !
 ! A3    A(2,1,11)             116.2545         calculate D2E/DX2 analytically  !
 ! A4    A(3,1,10)             101.286          calculate D2E/DX2 analytically  !
 ! A5    A(3,1,11)             116.4635         calculate D2E/DX2 analytically  !
 ! A6    A(10,1,11)            104.5918         calculate D2E/DX2 analytically  !
 ! A7    A(5,4,6)              109.9444         calculate D2E/DX2 analytically  !
 ! A8    A(5,4,7)              110.2607         calculate D2E/DX2 analytically  !
 ! A9    A(5,4,8)              110.8666         calculate D2E/DX2 analytically  !
 ! A10   A(6,4,7)              110.2492         calculate D2E/DX2 analytically  !
 ! A11   A(6,4,8)              105.1471         calculate D2E/DX2 analytically  !
 ! A12   A(7,4,8)              110.2643         calculate D2E/DX2 analytically  !
 ! A13   A(4,8,9)              108.0512         calculate D2E/DX2 analytically  !
 ! A14   A(8,9,10)             103.7459         calculate D2E/DX2 analytically  !
 ! A15   A(1,11,12)            121.0933         calculate D2E/DX2 analytically  !
 ! A16   A(1,11,15)            116.9957         calculate D2E/DX2 analytically  !
 ! A17   A(12,11,15)           121.8102         calculate D2E/DX2 analytically  !
 ! A18   A(11,12,13)           121.4254         calculate D2E/DX2 analytically  !
 ! A19   A(11,12,14)           121.0552         calculate D2E/DX2 analytically  !
 ! A20   A(13,12,14)           117.5179         calculate D2E/DX2 analytically  !
 ! A21   A(11,15,16)           110.7144         calculate D2E/DX2 analytically  !
 ! A22   A(11,15,17)           111.7253         calculate D2E/DX2 analytically  !
 ! A23   A(11,15,18)           110.1719         calculate D2E/DX2 analytically  !
 ! A24   A(16,15,17)           108.509          calculate D2E/DX2 analytically  !
 ! A25   A(16,15,18)           106.9483         calculate D2E/DX2 analytically  !
 ! A26   A(17,15,18)           108.6239         calculate D2E/DX2 analytically  !
 ! A27   L(1,10,9,18,-1)       181.6122         calculate D2E/DX2 analytically  !
 ! A28   L(1,10,9,18,-2)       175.791          calculate D2E/DX2 analytically  !
 ! D1    D(2,1,9,8)            -67.8183         calculate D2E/DX2 analytically  !
 ! D2    D(3,1,9,8)            174.5975         calculate D2E/DX2 analytically  !
 ! D3    D(11,1,9,8)            52.5634         calculate D2E/DX2 analytically  !
 ! D4    D(2,1,11,12)           15.6747         calculate D2E/DX2 analytically  !
 ! D5    D(2,1,11,15)         -167.9122         calculate D2E/DX2 analytically  !
 ! D6    D(3,1,11,12)          154.1596         calculate D2E/DX2 analytically  !
 ! D7    D(3,1,11,15)          -29.4273         calculate D2E/DX2 analytically  !
 ! D8    D(10,1,11,12)         -95.0172         calculate D2E/DX2 analytically  !
 ! D9    D(10,1,11,15)          81.396          calculate D2E/DX2 analytically  !
 ! D10   D(5,4,8,9)             62.8092         calculate D2E/DX2 analytically  !
 ! D11   D(6,4,8,9)           -178.4152         calculate D2E/DX2 analytically  !
 ! D12   D(7,4,8,9)            -59.5883         calculate D2E/DX2 analytically  !
 ! D13   D(4,8,9,10)          -102.0588         calculate D2E/DX2 analytically  !
 ! D14   D(1,11,12,13)         177.7844         calculate D2E/DX2 analytically  !
 ! D15   D(1,11,12,14)          -2.6721         calculate D2E/DX2 analytically  !
 ! D16   D(15,11,12,13)          1.5456         calculate D2E/DX2 analytically  !
 ! D17   D(15,11,12,14)       -178.9109         calculate D2E/DX2 analytically  !
 ! D18   D(1,11,15,16)          62.5962         calculate D2E/DX2 analytically  !
 ! D19   D(1,11,15,17)        -176.3378         calculate D2E/DX2 analytically  !
 ! D20   D(1,11,15,18)         -55.4994         calculate D2E/DX2 analytically  !
 ! D21   D(12,11,15,16)       -121.0183         calculate D2E/DX2 analytically  !
 ! D22   D(12,11,15,17)          0.0477         calculate D2E/DX2 analytically  !
 ! D23   D(12,11,15,18)        120.8861         calculate D2E/DX2 analytically  !
 --------------------------------------------------------------------------------
 Trust Radius=3.00D-01 FncErr=1.00D-07 GrdErr=1.00D-07 EigMax=2.50D+02 EigMin=1.00D-04
 Number of steps in this run=    108 maximum allowed number of steps=    108.
 Search for a saddle point of order  1.
 GradGradGradGradGradGradGradGradGradGradGradGradGradGradGradGradGradGrad

                          Input orientation:                          
 ---------------------------------------------------------------------
 Center     Atomic      Atomic             Coordinates (Angstroms)
 Number     Number       Type             X           Y           Z
 ---------------------------------------------------------------------
      1          6           0        0.938114    1.378443   -0.065515
      2          1           0        0.810982    1.985692    0.824216
      3          1           0        1.340400    1.923123   -0.914812
      4          6           0       -2.008535   -1.130576   -0.124489
      5          1           0       -1.024859   -1.494630   -0.414626
      6          1           0       -2.385665   -1.709810    0.715501
      7          1           0       -2.697136   -1.194022   -0.965374
      8          8           0       -1.933334    0.210322    0.351738
      9          8           0       -1.486877    1.018083   -0.697521
     10          1           0       -0.306864    1.206028   -0.437709
     11          6           0        1.447611    0.034281    0.141479
     12          6           0        1.447151   -0.528270    1.363253
     13          1           0        1.792059   -1.540489    1.517489
     14          1           0        1.107421    0.020664    2.229352
     15          6           0        1.893763   -0.721440   -1.078325
     16          1           0        2.730851   -0.215629   -1.560714
     17          1           0        2.198093   -1.736360   -0.834064
     18          1           0        1.085066   -0.766569   -1.809767
 ---------------------------------------------------------------------
                    Distance matrix (angstroms):
                    1          2          3          4          5
     1  C    0.000000
     2  H    1.084682   0.000000
     3  H    1.086193   1.818905   0.000000
     4  C    3.870581   4.308230   4.600549   0.000000
     5  H    3.497097   4.125249   4.186367   1.088271   0.000000
     6  H    4.603781   4.887444   5.453410   1.087806   1.781932
     7  H    4.543387   5.061631   5.101063   1.088708   1.786113
     8  O    3.127910   3.302491   3.905787   1.424940   2.078341
     9  O    2.531773   2.920977   2.976543   2.284125   2.570451
    10  H    1.310811   1.857393   1.858852   2.907492   2.794567
    11  C    1.452310   2.163199   2.166788   3.656853   2.959718
    12  C    2.436401   2.648637   3.348179   3.810238   3.194611
    13  H    3.428599   3.725197   4.256371   4.160365   3.416167
    14  H    2.671824   2.433848   3.682309   4.071253   3.719322
    15  C    2.519634   3.481471   2.706780   4.037961   3.091387
    16  H    2.826763   3.770889   2.631502   5.036035   4.129736
    17  H    3.446768   4.304375   3.759518   4.308850   3.259107
    18  H    2.768589   3.819415   2.846152   3.541614   2.632162
                    6          7          8          9         10
     6  H    0.000000
     7  H    1.785607   0.000000
     8  O    2.005950   2.071318   0.000000
     9  O    3.200914   2.535721   1.397407   0.000000
    10  H    3.762103   3.428129   2.063992   1.222807   0.000000
    11  C    4.250336   4.462374   3.392048   3.206713   2.187837
    12  C    4.062770   4.800088   3.605046   3.904679   3.054148
    13  H    4.257374   5.141743   4.278185   4.712110   3.971351
    14  H    4.181858   5.114332   3.578770   4.036312   3.243224
    15  C    4.744280   4.616540   4.190457   3.820953   2.994709
    16  H    5.795901   5.547497   5.059005   4.478435   3.536942
    17  H    4.838667   4.926930   4.718515   4.602674   3.884528
    18  H    4.394617   3.898816   3.838901   3.322193   2.776896
                   11         12         13         14         15
    11  C    0.000000
    12  C    1.345063   0.000000
    13  H    2.119422   1.080434   0.000000
    14  H    2.115450   1.080219   1.847343   0.000000
    15  C    1.502693   2.489594   2.723864   3.479911   0.000000
    16  H    2.146304   3.208615   3.480218   4.129886   1.090532
    17  H    2.156404   2.617556   2.394375   3.696108   1.087356
    18  H    2.140131   3.202491   3.488470   4.115181   1.091345
                   16         17         18
    16  H    0.000000
    17  H    1.767618   0.000000
    18  H    1.753331   1.769554   0.000000
 Stoichiometry    C5H11O2(2)
 Framework group  C1[X(C5H11O2)]
 Deg. of freedom    48
 Full point group                 C1      NOp   1
 Largest Abelian subgroup         C1      NOp   1
 Largest concise Abelian subgroup C1      NOp   1
                         Standard orientation:                         
 ---------------------------------------------------------------------
 Center     Atomic      Atomic             Coordinates (Angstroms)
 Number     Number       Type             X           Y           Z
 ---------------------------------------------------------------------
      1          6           0        0.919758    1.357258    0.285364
      2          1           0        0.803357    1.739964    1.293591
      3          1           0        1.291416    2.092191   -0.422845
      4          6           0       -1.981775   -1.138087   -0.294082
      5          1           0       -0.999038   -1.402604   -0.679560
      6          1           0       -2.327892   -1.903907    0.396602
      7          1           0       -2.689345   -1.021914   -1.113309
      8          8           0       -1.919196    0.058304    0.477401
      9          8           0       -1.512985    1.096275   -0.365424
     10          1           0       -0.330586    1.246521   -0.092265
     11          6           0        1.458266    0.013736    0.166353
     12          6           0        1.497620   -0.815142    1.224941
     13          1           0        1.864353   -1.827397    1.134480
     14          1           0        1.169196   -0.488636    2.200853
     15          6           0        1.888197   -0.429940   -1.203463
     16          1           0        2.704071    0.192668   -1.572202
     17          1           0        2.216606   -1.466513   -1.206184
     18          1           0        1.062914   -0.323954   -1.909658
 ---------------------------------------------------------------------
 Rotational constants (GHZ):           3.3791138           1.4715647           1.3618448
 Standard basis: CC-pVTZ (5D, 7F)
 There are   410 symmetry adapted cartesian basis functions of A   symmetry.
 There are   364 symmetry adapted basis functions of A   symmetry.
   364 basis functions,   551 primitive gaussians,   410 cartesian basis functions
    29 alpha electrons       28 beta electrons
       nuclear repulsion energy       313.1162160543 Hartrees.
 NAtoms=   18 NActive=   18 NUniq=   18 SFac= 1.00D+00 NAtFMM=   60 NAOKFM=F Big=F
 Integral buffers will be    131072 words long.
 Raffenetti 2 integral format.
 Two-electron integral symmetry is turned on.
 Nuclear repulsion after empirical dispersion term =      313.1060229612 Hartrees.
 One-electron integrals computed using PRISM.
 NBasis=   364 RedAO= T EigKep=  3.60D-04  NBF=   364
 NBsUse=   364 1.00D-06 EigRej= -1.00D+00 NBFU=   364
 ExpMin= 1.03D-01 ExpMax= 1.53D+04 ExpMxC= 5.22D+02 IAcc=3 IRadAn=         5 AccDes= 0.00D+00
 Harris functional with IExCor=  419 and IRadAn=       5 diagonalized for initial guess.
 HarFok:  IExCor=  419 AccDes= 0.00D+00 IRadAn=         5 IDoV= 1 UseB2=F ITyADJ=14
 ICtDFT=  3500011 ScaDFX=  1.000000  1.000000  1.000000  1.000000
 FoFCou: FMM=F IPFlag=           0 FMFlag=      100000 FMFlg1=           0
         NFxFlg=           0 DoJE=T BraDBF=F KetDBF=T FulRan=T
         wScrn=  0.000000 ICntrl=       500 IOpCl=  0 I1Cent=   200000004 NGrid=           0
         NMat0=    1 NMatS0=      1 NMatT0=    0 NMatD0=    1 NMtDS0=    0 NMtDT0=    0
 Petite list used in FoFCou.
 Initial guess <Sx>= 0.0000 <Sy>= 0.0000 <Sz>= 0.5000 <S**2>= 0.7500 S= 0.5000
 Requested convergence on RMS density matrix=1.00D-08 within 128 cycles.
 Requested convergence on MAX density matrix=1.00D-06.
 Requested convergence on             energy=1.00D-06.
 No special actions if energy rises.
 Integral accuracy reduced to 1.0D-05 until final iterations.
 Initial convergence to 1.0D-05 achieved.  Increase integral accuracy.
 SCF Done:  E(UB2PLYPD3) =  -346.817610418     A.U. after   22 cycles
            NFock= 22  Conv=0.61D-08     -V/T= 2.0043
 <Sx>= 0.0000 <Sy>= 0.0000 <Sz>= 0.5000 <S**2>= 0.8098 S= 0.5294
 <L.S>=  0.00000000000    
 Annihilation of the first spin contaminant:
 S**2 before annihilation     0.8098,   after     0.7517
 DoSCS=T DFT=T ScalE2(SS,OS)=  0.270000  0.270000
 ExpMin= 1.03D-01 ExpMax= 1.53D+04 ExpMxC= 5.22D+02 IAcc=3 IRadAn=         5 AccDes= 0.00D+00
 HarFok:  IExCor=  205 AccDes= 0.00D+00 IRadAn=         5 IDoV=-2 UseB2=F ITyADJ=14
 ICtDFT= 12500011 ScaDFX=  1.000000  1.000000  1.000000  1.000000
 Range of M.O.s used for correlation:     8   364
 NBasis=   364 NAE=    29 NBE=    28 NFC=     7 NFV=     0
 NROrb=    357 NOA=    22 NOB=    21 NVA=   335 NVB=   336

 **** Warning!!: The largest alpha MO coefficient is  0.12835264D+02


 **** Warning!!: The largest beta MO coefficient is  0.13006205D+02

 DoSCS=T DFT=T ScalE2(SS,OS)=  0.270000  0.270000
 Disk-based method using ON**2 memory for 22 occupieds at a time.
 Permanent disk used for amplitudes=   135386230 words.
 Estimated scratch disk usage=  2659462292 words.
 Actual    scratch disk usage=  2572464276 words.
 JobTyp=2 Pass  1:  I=   8 to  29 NPSUse= 40 ParTrn=T ParDer=T DoDerP=T.
 (rs|ai) integrals will be sorted in core.
 Actual    scratch disk usage=  2572464276 words.
 JobTyp=3 Pass  1:  I=   8 to  28 NPSUse= 40 ParTrn=T ParDer=T DoDerP=T.
 (rs|ai) integrals will be sorted in core.
 Spin components of T(2) and E(2):
     alpha-alpha T2 =       0.7577694627D-01 E2=     -0.5372817157D-01
     alpha-beta  T2 =       0.4628142433D+00 E2=     -0.3345651846D+00
     beta-beta   T2 =       0.8420698488D-01 E2=     -0.5315246186D-01
 (S**2,0)=  0.80975D+00           (S**2,1)=  0.75547D+00
 Scaling Projection term by:   0.270000
 E(PUHF)=      -0.34682738802D+03        E(PMP2)=      -0.34726051742D+03
 E2(B2PLYPD3) =    -0.4414458180D+00 E(B2PLYPD3) =    -0.34725905623607D+03
 G2DrvN: will do    19 centers at a time, making    1 passes.
 Calling FoFCou, ICntrl=  3107 FMM=F I1Cent=   0 AccDes= 0.00D+00.
 End of G2Drv F.D. properties file   721 does not exist.
 End of G2Drv F.D. properties file   722 does not exist.
 End of G2Drv F.D. properties file   788 does not exist.
          IDoAtm=111111111111111111
          Differentiating once with respect to electric field.
                with respect to dipole field.
          Differentiating once with respect to nuclear coordinates.
 Keep R1 and R2 ints in memory in canonical form, NReq=4459304624.
          There are    57 degrees of freedom in the 1st order CPHF.  IDoFFX=6 NUNeed=    57.
     54 vectors produced by pass  0 Test12= 3.35D-14 1.75D-09 XBig12= 1.07D+02 7.06D+00.
 AX will form    54 AO Fock derivatives at one time.
     54 vectors produced by pass  1 Test12= 3.35D-14 1.75D-09 XBig12= 1.16D+01 5.59D-01.
     54 vectors produced by pass  2 Test12= 3.35D-14 1.75D-09 XBig12= 9.65D-01 1.89D-01.
     54 vectors produced by pass  3 Test12= 3.35D-14 1.75D-09 XBig12= 1.57D-02 1.64D-02.
     54 vectors produced by pass  4 Test12= 3.35D-14 1.75D-09 XBig12= 1.84D-04 1.48D-03.
     54 vectors produced by pass  5 Test12= 3.35D-14 1.75D-09 XBig12= 2.53D-06 1.23D-04.
     54 vectors produced by pass  6 Test12= 3.35D-14 1.75D-09 XBig12= 2.17D-08 1.33D-05.
     25 vectors produced by pass  7 Test12= 3.35D-14 1.75D-09 XBig12= 1.34D-10 1.02D-06.
      3 vectors produced by pass  8 Test12= 3.35D-14 1.75D-09 XBig12= 1.05D-12 9.41D-08.
      2 vectors produced by pass  9 Test12= 3.35D-14 1.75D-09 XBig12= 8.21D-15 7.81D-09.
 InvSVY:  IOpt=1 It=  1 EMax= 3.55D-15
 Solved reduced A of dimension   408 with    57 vectors.
 End of Minotr F.D. properties file   721 does not exist.
 End of Minotr F.D. properties file   722 does not exist.
 End of Minotr F.D. properties file   788 does not exist.
 MDV= 10737418240.
 DoSCS=T DFT=T ScalE2(SS,OS)=  0.270000  0.270000
 Form MO integral derivatives with frozen-active canonical formalism.
 Discarding MO integrals.
 Reordered first order wavefunction length =    545006183
 In DefCFB: NBatch=  1 ICI= 29 ICA=336 LFMax= 68
            Large arrays: LIAPS= 11415666080 LIARS=  1957569600 words.
 In DefCFB: NBatch=  1 ICI= 29 ICA=336 LFMax= 68
            Large arrays: LIAPS= 11415666080 LIARS=  1957569600 words.
 Semi-Direct transformation.
 ModeAB=           4 MOrb=            29 LenV=   10733534545
 LASXX=    664627481 LTotXX=   664627481 LenRXX=  1338891981
 LTotAB=   674264500 MaxLAS=   829859940 LenRXY=           0
 NonZer=  2003519462 LenScr=  3017065472 LnRSAI=   829859940
 LnScr1=  1249672192 LExtra=           0 Total=   6435489585
 MaxDsk=          -1 SrtSym=           T ITran=            4
 JobTyp=1 Pass  1:  I=   1 to  29.
 (rs|ai) integrals will be sorted in core.
 ModeAB=           4 MOrb=            28 LenV=   10733534545
 LASXX=    642894399 LTotXX=   642894399 LenRXX=  1195226319
 LTotAB=   552331920 MaxLAS=   801244080 LenRXY=           0
 NonZer=  1838120718 LenScr=  2767993856 LnRSAI=   801244080
 LnScr1=  1206580224 LExtra=           0 Total=   5971044479
 MaxDsk=          -1 SrtSym=           T ITran=            4
 JobTyp=2 Pass  1:  I=   1 to  28.
 (rs|ai) integrals will be sorted in core.
 SymMOI:  orbitals are not symmetric.
 DoSCS=T DFT=T ScalE2(SS,OS)=  0.270000  0.270000
 Spin components of T(2) and E(2):
     alpha-alpha T2 =       0.7577694627D-01 E2=     -0.5372817157D-01
     alpha-beta  T2 =       0.4628142433D+00 E2=     -0.3345651846D+00
     beta-beta   T2 =       0.8420698488D-01 E2=     -0.5315246186D-01
 E2(B2PLYPD3) =    -0.4414458180D+00 E(B2PLYPD3) =    -0.34725905623607D+03
 (S**2,0)=  0.80975D+00           (S**2,1)=  0.75547D+00
 Scaling Projection term by:   0.270000
 E(PUHF)=      -0.34682738802D+03        E(PMP2)=      -0.34726051742D+03
          IDoAtm=111111111111111111
          Differentiating once with respect to electric field.
                with respect to dipole field.
          Differentiating once with respect to nuclear coordinates.
 Keep R1 and R2 ints in memory in canonical form, NReq=4459439664.
          There are     1 degrees of freedom in the 1st order CPHF.  IDoFFX=0 NUNeed=     1.
 LinEq1:  Iter=  0 NonCon=     1 RMS=9.28D-04 Max=5.50D-02 NDo=     1
 AX will form     1 AO Fock derivatives at one time.
 LinEq1:  Iter=  1 NonCon=     1 RMS=3.33D-04 Max=1.13D-02 NDo=     1
 LinEq1:  Iter=  2 NonCon=     1 RMS=2.24D-04 Max=9.87D-03 NDo=     1
 LinEq1:  Iter=  3 NonCon=     1 RMS=1.14D-04 Max=4.58D-03 NDo=     1
 LinEq1:  Iter=  4 NonCon=     1 RMS=7.76D-05 Max=4.08D-03 NDo=     1
 LinEq1:  Iter=  5 NonCon=     1 RMS=5.17D-05 Max=3.01D-03 NDo=     1
 LinEq1:  Iter=  6 NonCon=     1 RMS=2.79D-05 Max=7.47D-04 NDo=     1
 LinEq1:  Iter=  7 NonCon=     1 RMS=8.55D-06 Max=2.61D-04 NDo=     1
 LinEq1:  Iter=  8 NonCon=     1 RMS=5.85D-06 Max=4.00D-04 NDo=     1
 LinEq1:  Iter=  9 NonCon=     1 RMS=2.40D-06 Max=4.95D-05 NDo=     1
 LinEq1:  Iter= 10 NonCon=     1 RMS=1.08D-06 Max=2.36D-05 NDo=     1
 LinEq1:  Iter= 11 NonCon=     1 RMS=5.87D-07 Max=1.28D-05 NDo=     1
 LinEq1:  Iter= 12 NonCon=     1 RMS=2.41D-07 Max=4.24D-06 NDo=     1
 LinEq1:  Iter= 13 NonCon=     1 RMS=9.75D-08 Max=2.47D-06 NDo=     1
 LinEq1:  Iter= 14 NonCon=     1 RMS=3.78D-08 Max=9.94D-07 NDo=     1
 LinEq1:  Iter= 15 NonCon=     1 RMS=1.55D-08 Max=4.82D-07 NDo=     1
 LinEq1:  Iter= 16 NonCon=     1 RMS=6.14D-09 Max=1.03D-07 NDo=     1
 LinEq1:  Iter= 17 NonCon=     1 RMS=2.65D-09 Max=4.06D-08 NDo=     1
 LinEq1:  Iter= 18 NonCon=     1 RMS=7.53D-10 Max=1.63D-08 NDo=     1
 LinEq1:  Iter= 19 NonCon=     1 RMS=2.05D-10 Max=3.81D-09 NDo=     1
 LinEq1:  Iter= 20 NonCon=     1 RMS=6.08D-11 Max=1.17D-09 NDo=     1
 LinEq1:  Iter= 21 NonCon=     0 RMS=2.63D-11 Max=4.52D-10 NDo=     1
 Linear equations converged to 1.000D-10 1.000D-09 after    21 iterations.
 End of Minotr F.D. properties file   721 does not exist.
 End of Minotr F.D. properties file   722 does not exist.
 End of Minotr F.D. properties file   788 does not exist.
 Symmetrizing basis deriv contribution to polar:
 IMax=3 JMax=2 DiffMx= 0.00D+00
 G2DrvN: will do    19 centers at a time, making    1 passes.
 Calling FoFCou, ICntrl=  3107 FMM=F I1Cent=   0 AccDes= 0.00D+00.
 End of G2Drv F.D. properties file   721 does not exist.
 End of G2Drv F.D. properties file   722 does not exist.
 End of G2Drv F.D. properties file   788 does not exist.
 DoSCS=T DFT=T ScalE2(SS,OS)=  0.270000  0.270000
 R2 and R3 integrals will be kept in memory, NReq=  7133702340.
 DD1Dir will call FoFMem   1 times, MxPair=      2408
 NAB=   812 NAA=   406 NBB=   378.
 Discarding MO integrals.

 **********************************************************************

            Population analysis using the SCF Density.

 **********************************************************************

 Orbital symmetries:
 Alpha Orbitals:
       Occupied  (A) (A) (A) (A) (A) (A) (A) (A) (A) (A) (A) (A)
                 (A) (A) (A) (A) (A) (A) (A) (A) (A) (A) (A) (A)
                 (A) (A) (A) (A) (A)
       Virtual   (A) (A) (A) (A) (A) (A) (A) (A) (A) (A) (A) (A)
                 (A) (A) (A) (A) (A) (A) (A) (A) (A) (A) (A) (A)
                 (A) (A) (A) (A) (A) (A) (A) (A) (A) (A) (A) (A)
                 (A) (A) (A) (A) (A) (A) (A) (A) (A) (A) (A) (A)
                 (A) (A) (A) (A) (A) (A) (A) (A) (A) (A) (A) (A)
                 (A) (A) (A) (A) (A) (A) (A) (A) (A) (A) (A) (A)
                 (A) (A) (A) (A) (A) (A) (A) (A) (A) (A) (A) (A)
                 (A) (A) (A) (A) (A) (A) (A) (A) (A) (A) (A) (A)
                 (A) (A) (A) (A) (A) (A) (A) (A) (A) (A) (A) (A)
                 (A) (A) (A) (A) (A) (A) (A) (A) (A) (A) (A) (A)
                 (A) (A) (A) (A) (A) (A) (A) (A) (A) (A) (A) (A)
                 (A) (A) (A) (A) (A) (A) (A) (A) (A) (A) (A) (A)
                 (A) (A) (A) (A) (A) (A) (A) (A) (A) (A) (A) (A)
                 (A) (A) (A) (A) (A) (A) (A) (A) (A) (A) (A) (A)
                 (A) (A) (A) (A) (A) (A) (A) (A) (A) (A) (A) (A)
                 (A) (A) (A) (A) (A) (A) (A) (A) (A) (A) (A) (A)
                 (A) (A) (A) (A) (A) (A) (A) (A) (A) (A) (A) (A)
                 (A) (A) (A) (A) (A) (A) (A) (A) (A) (A) (A) (A)
                 (A) (A) (A) (A) (A) (A) (A) (A) (A) (A) (A) (A)
                 (A) (A) (A) (A) (A) (A) (A) (A) (A) (A) (A) (A)
                 (A) (A) (A) (A) (A) (A) (A) (A) (A) (A) (A) (A)
                 (A) (A) (A) (A) (A) (A) (A) (A) (A) (A) (A) (A)
                 (A) (A) (A) (A) (A) (A) (A) (A) (A) (A) (A) (A)
                 (A) (A) (A) (A) (A) (A) (A) (A) (A) (A) (A) (A)
                 (A) (A) (A) (A) (A) (A) (A) (A) (A) (A) (A) (A)
                 (A) (A) (A) (A) (A) (A) (A) (A) (A) (A) (A) (A)
                 (A) (A) (A) (A) (A) (A) (A) (A) (A) (A) (A) (A)
                 (A) (A) (A) (A) (A) (A) (A) (A) (A) (A) (A)
 Beta  Orbitals:
       Occupied  (A) (A) (A) (A) (A) (A) (A) (A) (A) (A) (A) (A)
                 (A) (A) (A) (A) (A) (A) (A) (A) (A) (A) (A) (A)
                 (A) (A) (A) (A)
       Virtual   (A) (A) (A) (A) (A) (A) (A) (A) (A) (A) (A) (A)
                 (A) (A) (A) (A) (A) (A) (A) (A) (A) (A) (A) (A)
                 (A) (A) (A) (A) (A) (A) (A) (A) (A) (A) (A) (A)
                 (A) (A) (A) (A) (A) (A) (A) (A) (A) (A) (A) (A)
                 (A) (A) (A) (A) (A) (A) (A) (A) (A) (A) (A) (A)
                 (A) (A) (A) (A) (A) (A) (A) (A) (A) (A) (A) (A)
                 (A) (A) (A) (A) (A) (A) (A) (A) (A) (A) (A) (A)
                 (A) (A) (A) (A) (A) (A) (A) (A) (A) (A) (A) (A)
                 (A) (A) (A) (A) (A) (A) (A) (A) (A) (A) (A) (A)
                 (A) (A) (A) (A) (A) (A) (A) (A) (A) (A) (A) (A)
                 (A) (A) (A) (A) (A) (A) (A) (A) (A) (A) (A) (A)
                 (A) (A) (A) (A) (A) (A) (A) (A) (A) (A) (A) (A)
                 (A) (A) (A) (A) (A) (A) (A) (A) (A) (A) (A) (A)
                 (A) (A) (A) (A) (A) (A) (A) (A) (A) (A) (A) (A)
                 (A) (A) (A) (A) (A) (A) (A) (A) (A) (A) (A) (A)
                 (A) (A) (A) (A) (A) (A) (A) (A) (A) (A) (A) (A)
                 (A) (A) (A) (A) (A) (A) (A) (A) (A) (A) (A) (A)
                 (A) (A) (A) (A) (A) (A) (A) (A) (A) (A) (A) (A)
                 (A) (A) (A) (A) (A) (A) (A) (A) (A) (A) (A) (A)
                 (A) (A) (A) (A) (A) (A) (A) (A) (A) (A) (A) (A)
                 (A) (A) (A) (A) (A) (A) (A) (A) (A) (A) (A) (A)
                 (A) (A) (A) (A) (A) (A) (A) (A) (A) (A) (A) (A)
                 (A) (A) (A) (A) (A) (A) (A) (A) (A) (A) (A) (A)
                 (A) (A) (A) (A) (A) (A) (A) (A) (A) (A) (A) (A)
                 (A) (A) (A) (A) (A) (A) (A) (A) (A) (A) (A) (A)
                 (A) (A) (A) (A) (A) (A) (A) (A) (A) (A) (A) (A)
                 (A) (A) (A) (A) (A) (A) (A) (A) (A) (A) (A) (A)
                 (A) (A) (A) (A) (A) (A) (A) (A) (A) (A) (A) (A)
 The electronic state is 2-A.
 Alpha  occ. eigenvalues --  -19.78617 -19.78324 -10.65702 -10.63747 -10.63041
 Alpha  occ. eigenvalues --  -10.61827 -10.61669  -1.27514  -1.01268  -0.94588
 Alpha  occ. eigenvalues --   -0.81446  -0.80428  -0.77157  -0.62801  -0.59928
 Alpha  occ. eigenvalues --   -0.55719  -0.54481  -0.54204  -0.53466  -0.50214
 Alpha  occ. eigenvalues --   -0.48834  -0.45588  -0.44723  -0.43893  -0.42256
 Alpha  occ. eigenvalues --   -0.39102  -0.36252  -0.33805  -0.28046
 Alpha virt. eigenvalues --    0.06572   0.07393   0.10929   0.11456   0.11867
 Alpha virt. eigenvalues --    0.13121   0.14404   0.15133   0.15908   0.16636
 Alpha virt. eigenvalues --    0.17676   0.19027   0.20139   0.20948   0.26662
 Alpha virt. eigenvalues --    0.28476   0.28907   0.29859   0.32104   0.32635
 Alpha virt. eigenvalues --    0.34191   0.37141   0.38581   0.40329   0.41193
 Alpha virt. eigenvalues --    0.42214   0.44428   0.46100   0.47676   0.48891
 Alpha virt. eigenvalues --    0.50646   0.51324   0.51954   0.52213   0.52808
 Alpha virt. eigenvalues --    0.53860   0.53996   0.54496   0.55260   0.56651
 Alpha virt. eigenvalues --    0.57406   0.58945   0.60769   0.61976   0.64409
 Alpha virt. eigenvalues --    0.65243   0.66603   0.68792   0.70421   0.72896
 Alpha virt. eigenvalues --    0.73596   0.75103   0.79666   0.80464   0.80939
 Alpha virt. eigenvalues --    0.83289   0.84081   0.87696   0.88385   0.90800
 Alpha virt. eigenvalues --    0.94634   0.95463   0.97365   0.99680   1.00074
 Alpha virt. eigenvalues --    1.01180   1.01440   1.02582   1.03219   1.05341
 Alpha virt. eigenvalues --    1.07244   1.08824   1.11108   1.11883   1.12170
 Alpha virt. eigenvalues --    1.13685   1.15584   1.16761   1.18425   1.18912
 Alpha virt. eigenvalues --    1.21603   1.24186   1.24724   1.25650   1.28238
 Alpha virt. eigenvalues --    1.29463   1.30508   1.31045   1.31887   1.33855
 Alpha virt. eigenvalues --    1.36093   1.37215   1.39450   1.39883   1.40286
 Alpha virt. eigenvalues --    1.42386   1.42944   1.43523   1.47333   1.50726
 Alpha virt. eigenvalues --    1.51357   1.53059   1.55685   1.56192   1.58116
 Alpha virt. eigenvalues --    1.59563   1.61563   1.63494   1.64714   1.67974
 Alpha virt. eigenvalues --    1.73632   1.79643   1.81420   1.84975   1.90089
 Alpha virt. eigenvalues --    1.90906   1.99136   2.02356   2.04682   2.12297
 Alpha virt. eigenvalues --    2.17722   2.21938   2.22771   2.28671   2.31258
 Alpha virt. eigenvalues --    2.33890   2.36455   2.40451   2.41065   2.44639
 Alpha virt. eigenvalues --    2.46399   2.48317   2.49831   2.51920   2.53348
 Alpha virt. eigenvalues --    2.57994   2.59593   2.64398   2.65804   2.68276
 Alpha virt. eigenvalues --    2.70364   2.72417   2.73923   2.74885   2.78435
 Alpha virt. eigenvalues --    2.82404   2.84811   2.87294   2.88618   2.89043
 Alpha virt. eigenvalues --    2.90969   2.92827   2.93050   2.93890   2.96964
 Alpha virt. eigenvalues --    2.97198   2.99083   2.99696   3.00463   3.03485
 Alpha virt. eigenvalues --    3.04122   3.04826   3.06541   3.07433   3.08523
 Alpha virt. eigenvalues --    3.11179   3.12554   3.13844   3.14228   3.15130
 Alpha virt. eigenvalues --    3.17439   3.18371   3.20797   3.21495   3.21571
 Alpha virt. eigenvalues --    3.22319   3.23056   3.24894   3.25633   3.27441
 Alpha virt. eigenvalues --    3.32398   3.34984   3.36791   3.39325   3.41256
 Alpha virt. eigenvalues --    3.42098   3.43146   3.44432   3.45193   3.46891
 Alpha virt. eigenvalues --    3.49213   3.50380   3.51550   3.52075   3.53647
 Alpha virt. eigenvalues --    3.54453   3.56662   3.58933   3.59342   3.60570
 Alpha virt. eigenvalues --    3.61099   3.61763   3.65835   3.66477   3.67667
 Alpha virt. eigenvalues --    3.68915   3.72847   3.75491   3.79294   3.81325
 Alpha virt. eigenvalues --    3.82577   3.84076   3.84453   3.87453   3.89708
 Alpha virt. eigenvalues --    3.91629   3.92708   3.93743   3.95359   3.96228
 Alpha virt. eigenvalues --    3.98713   4.00890   4.01689   4.03167   4.05090
 Alpha virt. eigenvalues --    4.07148   4.09788   4.10807   4.11367   4.12401
 Alpha virt. eigenvalues --    4.13875   4.14886   4.16087   4.18341   4.19088
 Alpha virt. eigenvalues --    4.20091   4.20719   4.22198   4.24967   4.26002
 Alpha virt. eigenvalues --    4.27133   4.28815   4.30403   4.31374   4.35791
 Alpha virt. eigenvalues --    4.37129   4.39033   4.40918   4.45052   4.46672
 Alpha virt. eigenvalues --    4.47468   4.52260   4.53336   4.57204   4.61124
 Alpha virt. eigenvalues --    4.62744   4.64236   4.65847   4.68820   4.71034
 Alpha virt. eigenvalues --    4.73005   4.78670   4.82774   4.86915   4.90191
 Alpha virt. eigenvalues --    4.91426   4.94738   4.99714   5.00071   5.00959
 Alpha virt. eigenvalues --    5.02932   5.04956   5.05689   5.07230   5.07559
 Alpha virt. eigenvalues --    5.12207   5.15716   5.17327   5.19274   5.22922
 Alpha virt. eigenvalues --    5.25659   5.28258   5.31631   5.32979   5.33323
 Alpha virt. eigenvalues --    5.34256   5.35226   5.37187   5.39529   5.39675
 Alpha virt. eigenvalues --    5.41633   5.44955   5.46238   5.48647   5.49203
 Alpha virt. eigenvalues --    5.51612   5.57143   5.64977   5.65838   5.71676
 Alpha virt. eigenvalues --    5.79116   5.89688   5.94498   5.95344   5.96976
 Alpha virt. eigenvalues --    6.00173   6.02458   6.03696   6.07147   6.10853
 Alpha virt. eigenvalues --    6.12619   6.18213   6.26447   6.36641   6.37868
 Alpha virt. eigenvalues --    6.39729   6.64855   6.72666   6.74899   6.82019
 Alpha virt. eigenvalues --    6.95674   7.04627   7.07633   7.14112   7.43751
 Alpha virt. eigenvalues --    7.48671   7.58258   7.68124   9.81997  10.08764
 Alpha virt. eigenvalues --   10.57896  13.46538  13.59508  14.11683  14.43086
  Beta  occ. eigenvalues --  -19.78379 -19.76580 -10.65713 -10.64169 -10.62063
  Beta  occ. eigenvalues --  -10.61640 -10.61204  -1.25415  -0.98135  -0.94105
  Beta  occ. eigenvalues --   -0.80434  -0.78394  -0.76505  -0.62103  -0.56916
  Beta  occ. eigenvalues --   -0.54446  -0.54101  -0.53761  -0.53138  -0.49594
  Beta  occ. eigenvalues --   -0.46206  -0.45127  -0.44544  -0.43039  -0.41999
  Beta  occ. eigenvalues --   -0.35873  -0.34411  -0.29193
  Beta virt. eigenvalues --   -0.05714   0.07431   0.07510   0.11372   0.11599
  Beta virt. eigenvalues --    0.11994   0.13518   0.14698   0.15396   0.16009
  Beta virt. eigenvalues --    0.16681   0.17926   0.19291   0.20266   0.21401
  Beta virt. eigenvalues --    0.26908   0.28971   0.29232   0.30533   0.32347
  Beta virt. eigenvalues --    0.33485   0.34370   0.37271   0.39619   0.40778
  Beta virt. eigenvalues --    0.41498   0.42334   0.44512   0.46221   0.48415
  Beta virt. eigenvalues --    0.49360   0.50901   0.51738   0.52152   0.52574
  Beta virt. eigenvalues --    0.53336   0.54005   0.54476   0.55135   0.55987
  Beta virt. eigenvalues --    0.57203   0.57784   0.59672   0.61452   0.62099
  Beta virt. eigenvalues --    0.64661   0.65438   0.66917   0.68998   0.70758
  Beta virt. eigenvalues --    0.73336   0.74013   0.75740   0.79815   0.80609
  Beta virt. eigenvalues --    0.81350   0.83594   0.84549   0.88071   0.88521
  Beta virt. eigenvalues --    0.91045   0.94938   0.95747   0.97469   0.99875
  Beta virt. eigenvalues --    1.00189   1.01363   1.01622   1.02830   1.03371
  Beta virt. eigenvalues --    1.05438   1.07372   1.08982   1.11854   1.12089
  Beta virt. eigenvalues --    1.12764   1.14247   1.15758   1.17221   1.18612
  Beta virt. eigenvalues --    1.19091   1.21845   1.24189   1.24931   1.25647
  Beta virt. eigenvalues --    1.28882   1.29467   1.31054   1.31327   1.32417
  Beta virt. eigenvalues --    1.33976   1.36319   1.37329   1.39644   1.40038
  Beta virt. eigenvalues --    1.40469   1.42646   1.43040   1.43939   1.47424
  Beta virt. eigenvalues --    1.50939   1.51894   1.53273   1.56015   1.56488
  Beta virt. eigenvalues --    1.58370   1.59825   1.61773   1.63918   1.65040
  Beta virt. eigenvalues --    1.68264   1.74444   1.80492   1.82005   1.85587
  Beta virt. eigenvalues --    1.91059   1.91717   1.99466   2.02921   2.05703
  Beta virt. eigenvalues --    2.12648   2.18801   2.22682   2.24370   2.29007
  Beta virt. eigenvalues --    2.31831   2.34415   2.36992   2.41158   2.41560
  Beta virt. eigenvalues --    2.44540   2.46882   2.48461   2.50095   2.52317
  Beta virt. eigenvalues --    2.53479   2.58397   2.60101   2.65414   2.66310
  Beta virt. eigenvalues --    2.68942   2.70579   2.72539   2.74127   2.74990
  Beta virt. eigenvalues --    2.78791   2.82690   2.85199   2.87406   2.89246
  Beta virt. eigenvalues --    2.90221   2.91107   2.92954   2.93294   2.94143
  Beta virt. eigenvalues --    2.97302   2.97746   2.99552   2.99959   3.01113
  Beta virt. eigenvalues --    3.03762   3.04285   3.05477   3.06792   3.07569
  Beta virt. eigenvalues --    3.08785   3.11296   3.13017   3.13994   3.14525
  Beta virt. eigenvalues --    3.15619   3.17784   3.18620   3.21075   3.21745
  Beta virt. eigenvalues --    3.21815   3.22618   3.23591   3.25017   3.26586
  Beta virt. eigenvalues --    3.28006   3.33222   3.35447   3.37284   3.39186
  Beta virt. eigenvalues --    3.41426   3.42249   3.43253   3.44621   3.45319
  Beta virt. eigenvalues --    3.47084   3.49669   3.50691   3.51819   3.52336
  Beta virt. eigenvalues --    3.53796   3.54531   3.56785   3.59102   3.59588
  Beta virt. eigenvalues --    3.60733   3.61271   3.61975   3.66080   3.66781
  Beta virt. eigenvalues --    3.67824   3.69019   3.72999   3.75765   3.79379
  Beta virt. eigenvalues --    3.81590   3.82727   3.84144   3.84693   3.87629
  Beta virt. eigenvalues --    3.89841   3.91828   3.92768   3.93918   3.95503
  Beta virt. eigenvalues --    3.96242   3.98878   4.00921   4.01696   4.03307
  Beta virt. eigenvalues --    4.05103   4.07016   4.09715   4.10788   4.11346
  Beta virt. eigenvalues --    4.12643   4.13803   4.14903   4.16146   4.18440
  Beta virt. eigenvalues --    4.19103   4.20007   4.20761   4.22176   4.24969
  Beta virt. eigenvalues --    4.26006   4.27122   4.28956   4.30505   4.31534
  Beta virt. eigenvalues --    4.35878   4.37141   4.39152   4.41237   4.45169
  Beta virt. eigenvalues --    4.46934   4.47748   4.52527   4.53841   4.57284
  Beta virt. eigenvalues --    4.61732   4.63119   4.65040   4.66162   4.69191
  Beta virt. eigenvalues --    4.71547   4.73378   4.79466   4.82953   4.87354
  Beta virt. eigenvalues --    4.90397   4.91525   4.94898   4.99931   5.00310
  Beta virt. eigenvalues --    5.01189   5.03149   5.05109   5.06191   5.07677
  Beta virt. eigenvalues --    5.07942   5.12724   5.16226   5.17931   5.19769
  Beta virt. eigenvalues --    5.23365   5.25754   5.28720   5.32044   5.33172
  Beta virt. eigenvalues --    5.33862   5.34471   5.35420   5.37359   5.39851
  Beta virt. eigenvalues --    5.39992   5.41942   5.45093   5.46320   5.48959
  Beta virt. eigenvalues --    5.49335   5.51723   5.57327   5.65551   5.66557
  Beta virt. eigenvalues --    5.71979   5.79602   5.91012   5.94630   5.95647
  Beta virt. eigenvalues --    5.97580   6.00535   6.03091   6.03837   6.07525
  Beta virt. eigenvalues --    6.11720   6.12771   6.20236   6.27216   6.37903
  Beta virt. eigenvalues --    6.38166   6.40191   6.65851   6.75388   6.77608
  Beta virt. eigenvalues --    6.83416   6.97838   7.06321   7.09160   7.16198
  Beta virt. eigenvalues --    7.44020   7.50803   7.59898   7.68989   9.83198
  Beta virt. eigenvalues --   10.08628  10.58812  13.46601  13.60236  14.11677
  Beta virt. eigenvalues --   14.43526
          Condensed to atoms (all electrons):
               1          2          3          4          5          6
     1  C    5.051320   0.416616   0.403382  -0.002867  -0.000317   0.000297
     2  H    0.416616   0.540899  -0.028688   0.000016   0.000101   0.000022
     3  H    0.403382  -0.028688   0.562194   0.000073  -0.000281  -0.000003
     4  C   -0.002867   0.000016   0.000073   4.598682   0.384140   0.401933
     5  H   -0.000317   0.000101  -0.000281   0.384140   0.696712  -0.036788
     6  H    0.000297   0.000022  -0.000003   0.401933  -0.036788   0.586416
     7  H   -0.000108  -0.000005   0.000067   0.417148  -0.059600  -0.029367
     8  O    0.004147   0.000203   0.000680   0.300150  -0.048720  -0.025468
     9  O   -0.073499  -0.000242   0.000059  -0.040833  -0.003928   0.006428
    10  H    0.239767  -0.006321  -0.013475   0.002472   0.003636  -0.000781
    11  C    0.360001  -0.041788  -0.039234   0.000055   0.000712   0.000321
    12  C   -0.060897  -0.006416   0.006319  -0.002691  -0.005252   0.000239
    13  H    0.006649   0.000006  -0.000286  -0.000063  -0.000183   0.000026
    14  H   -0.007333   0.002724   0.000101   0.000103   0.000056  -0.000008
    15  C   -0.057047   0.005425  -0.005006  -0.000275  -0.001878  -0.000034
    16  H   -0.005370  -0.000183   0.002380  -0.000020   0.000101   0.000002
    17  H    0.005520  -0.000323   0.000066   0.000050   0.000159  -0.000009
    18  H    0.003899   0.000112  -0.002202  -0.000273  -0.000912   0.000163
               7          8          9         10         11         12
     1  C   -0.000108   0.004147  -0.073499   0.239767   0.360001  -0.060897
     2  H   -0.000005   0.000203  -0.000242  -0.006321  -0.041788  -0.006416
     3  H    0.000067   0.000680   0.000059  -0.013475  -0.039234   0.006319
     4  C    0.417148   0.300150  -0.040833   0.002472   0.000055  -0.002691
     5  H   -0.059600  -0.048720  -0.003928   0.003636   0.000712  -0.005252
     6  H   -0.029367  -0.025468   0.006428  -0.000781   0.000321   0.000239
     7  H    0.614270  -0.039308   0.003477   0.000157   0.000222   0.000566
     8  O   -0.039308   7.942611   0.070828  -0.025517  -0.004030   0.007670
     9  O    0.003477   0.070828   8.095757   0.172333  -0.006577  -0.000609
    10  H    0.000157  -0.025517   0.172333   0.432467  -0.007509  -0.006155
    11  C    0.000222  -0.004030  -0.006577  -0.007509   4.941278   0.579429
    12  C    0.000566   0.007670  -0.000609  -0.006155   0.579429   5.032938
    13  H    0.000015   0.000149   0.000013  -0.000041  -0.050827   0.416367
    14  H    0.000017   0.000632  -0.000186   0.000007  -0.044571   0.413120
    15  C   -0.000096  -0.000076  -0.001174  -0.000703   0.351098  -0.054263
    16  H    0.000002   0.000010  -0.000090  -0.000450  -0.037495   0.001948
    17  H   -0.000010  -0.000012  -0.000029  -0.000014  -0.040177  -0.005975
    18  H   -0.000078  -0.000417   0.005320   0.001994  -0.048412  -0.002118
              13         14         15         16         17         18
     1  C    0.006649  -0.007333  -0.057047  -0.005370   0.005520   0.003899
     2  H    0.000006   0.002724   0.005425  -0.000183  -0.000323   0.000112
     3  H   -0.000286   0.000101  -0.005006   0.002380   0.000066  -0.002202
     4  C   -0.000063   0.000103  -0.000275  -0.000020   0.000050  -0.000273
     5  H   -0.000183   0.000056  -0.001878   0.000101   0.000159  -0.000912
     6  H    0.000026  -0.000008  -0.000034   0.000002  -0.000009   0.000163
     7  H    0.000015   0.000017  -0.000096   0.000002  -0.000010  -0.000078
     8  O    0.000149   0.000632  -0.000076   0.000010  -0.000012  -0.000417
     9  O    0.000013  -0.000186  -0.001174  -0.000090  -0.000029   0.005320
    10  H   -0.000041   0.000007  -0.000703  -0.000450  -0.000014   0.001994
    11  C   -0.050827  -0.044571   0.351098  -0.037495  -0.040177  -0.048412
    12  C    0.416367   0.413120  -0.054263   0.001948  -0.005975  -0.002118
    13  H    0.540902  -0.034270  -0.007884   0.000104   0.002504   0.000402
    14  H   -0.034270   0.536456   0.006439  -0.000304   0.000082  -0.000379
    15  C   -0.007884   0.006439   4.833241   0.411670   0.414792   0.400171
    16  H    0.000104  -0.000304   0.411670   0.576406  -0.024629  -0.037025
    17  H    0.002504   0.000082   0.414792  -0.024629   0.574879  -0.028440
    18  H    0.000402  -0.000379   0.400171  -0.037025  -0.028440   0.604096
          Atomic-Atomic Spin Densities.
               1          2          3          4          5          6
     1  C    0.532517   0.001472   0.003363   0.001457  -0.003959   0.000072
     2  H    0.001472  -0.020166   0.002437  -0.000074   0.000152  -0.000008
     3  H    0.003363   0.002437  -0.027136  -0.000091   0.000232  -0.000002
     4  C    0.001457  -0.000074  -0.000091  -0.005060  -0.000721   0.000721
     5  H   -0.003959   0.000152   0.000232  -0.000721   0.007478  -0.001004
     6  H    0.000072  -0.000008  -0.000002   0.000721  -0.001004  -0.001546
     7  H    0.000655  -0.000022  -0.000036  -0.000321  -0.001495   0.000827
     8  O    0.011045  -0.000740  -0.000347   0.003032  -0.002172   0.000247
     9  O   -0.071419   0.002736   0.002965  -0.003843   0.003828  -0.000176
    10  H    0.057430   0.001294   0.004175   0.001686  -0.003299   0.000140
    11  C   -0.023526   0.002279   0.002290  -0.001390   0.003132  -0.000118
    12  C   -0.016736  -0.001486  -0.000873  -0.002570   0.004760  -0.000102
    13  H   -0.000162   0.000010   0.000035  -0.000061   0.000183  -0.000007
    14  H   -0.000110  -0.000239  -0.000089   0.000010  -0.000051   0.000004
    15  C   -0.002961  -0.000081  -0.001306  -0.000074   0.000260   0.000011
    16  H    0.000519   0.000059  -0.000088  -0.000022   0.000116  -0.000001
    17  H   -0.000074   0.000022   0.000012  -0.000029   0.000115  -0.000001
    18  H    0.001272  -0.000073   0.000467   0.000353  -0.001403   0.000000
               7          8          9         10         11         12
     1  C    0.000655   0.011045  -0.071419   0.057430  -0.023526  -0.016736
     2  H   -0.000022  -0.000740   0.002736   0.001294   0.002279  -0.001486
     3  H   -0.000036  -0.000347   0.002965   0.004175   0.002290  -0.000873
     4  C   -0.000321   0.003032  -0.003843   0.001686  -0.001390  -0.002570
     5  H   -0.001495  -0.002172   0.003828  -0.003299   0.003132   0.004760
     6  H    0.000827   0.000247  -0.000176   0.000140  -0.000118  -0.000102
     7  H    0.000469  -0.000410   0.000573   0.001186  -0.000383  -0.000281
     8  O   -0.000410   0.077433  -0.048842   0.010633  -0.002199  -0.003770
     9  O    0.000573  -0.048842   0.614041  -0.052494   0.008447   0.002415
    10  H    0.001186   0.010633  -0.052494  -0.102776   0.001619   0.000733
    11  C   -0.000383  -0.002199   0.008447   0.001619  -0.239728  -0.000648
    12  C   -0.000281  -0.003770   0.002415   0.000733  -0.000648   0.392626
    13  H   -0.000006  -0.000049   0.000021   0.000002  -0.001010   0.004648
    14  H    0.000003   0.000112  -0.000101   0.000177  -0.000497   0.004575
    15  C   -0.000018  -0.000063   0.000350   0.000047   0.007516   0.000156
    16  H   -0.000007  -0.000014   0.000104   0.000056   0.004101  -0.000776
    17  H   -0.000006  -0.000008   0.000028  -0.000015   0.000557   0.000005
    18  H    0.000216   0.000230  -0.001335  -0.000700   0.005422  -0.000058
              13         14         15         16         17         18
     1  C   -0.000162  -0.000110  -0.002961   0.000519  -0.000074   0.001272
     2  H    0.000010  -0.000239  -0.000081   0.000059   0.000022  -0.000073
     3  H    0.000035  -0.000089  -0.001306  -0.000088   0.000012   0.000467
     4  C   -0.000061   0.000010  -0.000074  -0.000022  -0.000029   0.000353
     5  H    0.000183  -0.000051   0.000260   0.000116   0.000115  -0.001403
     6  H   -0.000007   0.000004   0.000011  -0.000001  -0.000001   0.000000
     7  H   -0.000006   0.000003  -0.000018  -0.000007  -0.000006   0.000216
     8  O   -0.000049   0.000112  -0.000063  -0.000014  -0.000008   0.000230
     9  O    0.000021  -0.000101   0.000350   0.000104   0.000028  -0.001335
    10  H    0.000002   0.000177   0.000047   0.000056  -0.000015  -0.000700
    11  C   -0.001010  -0.000497   0.007516   0.004101   0.000557   0.005422
    12  C    0.004648   0.004575   0.000156  -0.000776   0.000005  -0.000058
    13  H   -0.023423   0.002616   0.000290   0.000019  -0.000106  -0.000065
    14  H    0.002616  -0.021039  -0.000093  -0.000011   0.000003   0.000034
    15  C    0.000290  -0.000093   0.014943  -0.003774  -0.000390  -0.001110
    16  H    0.000019  -0.000011  -0.003774  -0.009110   0.000389   0.002257
    17  H   -0.000106   0.000003  -0.000390   0.000389  -0.001412  -0.000076
    18  H   -0.000065   0.000034  -0.001110   0.002257  -0.000076  -0.013585
 Mulliken charges and spin densities:
               1          2
     1  C   -0.284159   0.490855
     2  H    0.117841  -0.012428
     3  H    0.113853  -0.013993
     4  C   -0.057799  -0.006997
     5  H    0.072243   0.006152
     6  H    0.096610  -0.000943
     7  H    0.092632   0.000944
     8  O   -0.183530   0.044118
     9  O   -0.227046   0.457298
    10  H    0.208134  -0.080105
    11  C    0.087505  -0.234140
    12  C   -0.314220   0.382620
    13  H    0.126419  -0.017064
    14  H    0.127315  -0.014697
    15  C   -0.294401   0.013701
    16  H    0.112942  -0.006186
    17  H    0.101565  -0.000985
    18  H    0.104098  -0.008153
 Sum of Mulliken charges =  -0.00000   1.00000
 Mulliken charges and spin densities with hydrogens summed into heavy atoms:
               1          2
     1  C   -0.052465   0.464434
     4  C    0.203686  -0.000843
     8  O   -0.183530   0.044118
     9  O   -0.018913   0.377194
    11  C    0.087505  -0.234140
    12  C   -0.060487   0.350859
    15  C    0.024204  -0.001623
 APT charges:
               1
     1  C    0.485986
     2  H   -0.033199
     3  H   -0.053389
     4  C    0.419637
     5  H   -0.028530
     6  H   -0.006943
     7  H   -0.036248
     8  O   -0.351818
     9  O    0.140365
    10  H   -0.441762
    11  C   -0.095464
    12  C   -0.099804
    13  H    0.047711
    14  H    0.019387
    15  C    0.048016
    16  H   -0.008391
    17  H   -0.007335
    18  H    0.001781
 Sum of APT charges =  -0.00000
 APT charges with hydrogens summed into heavy atoms:
               1
     1  C    0.399399
     4  C    0.347916
     8  O   -0.351818
     9  O   -0.301397
    11  C   -0.095464
    12  C   -0.032706
    15  C    0.034071
 Electronic spatial extent (au):  <R**2>=           1000.7777
 Charge=             -0.0000 electrons
 Dipole moment (field-independent basis, Debye):
    X=              1.8644    Y=             -1.5664    Z=             -0.5552  Tot=              2.4976
 Quadrupole moment (field-independent basis, Debye-Ang):
   XX=            -47.0601   YY=            -42.2684   ZZ=            -43.9018
   XY=              4.4744   XZ=              0.1552   YZ=              0.3978
 Traceless Quadrupole moment (field-independent basis, Debye-Ang):
   XX=             -2.6500   YY=              2.1417   ZZ=              0.5083
   XY=              4.4744   XZ=              0.1552   YZ=              0.3978
 Octapole moment (field-independent basis, Debye-Ang**2):
  XXX=            -17.5271  YYY=              1.1586  ZZZ=              3.1916  XYY=             -1.7616
  XXY=             -9.2267  XXZ=             -7.4946  XZZ=             -3.5280  YZZ=              1.5096
  YYZ=              1.3677  XYZ=             -1.7014
 Hexadecapole moment (field-independent basis, Debye-Ang**3):
 XXXX=           -799.1848 YYYY=           -293.9526 ZZZZ=           -227.6257 XXXY=             12.5822
 XXXZ=             -6.8070 YYYX=              0.0770 YYYZ=             -3.9132 ZZZX=              0.9076
 ZZZY=             -0.0460 XXYY=           -173.2264 XXZZ=           -172.1428 YYZZ=            -86.7315
 XXYZ=             -2.9104 YYXZ=             -3.3707 ZZXY=              1.1925
 N-N= 3.131060229612D+02 E-N=-1.437373170274D+03  KE= 3.453320857043D+02
  Exact polarizability: 111.535  -0.189  79.223   8.793  -6.713  73.381
 Approx polarizability:  97.502  -3.294  89.517   5.539 -12.679  84.314
                          Isotropic Fermi Contact Couplings
        Atom                 a.u.       MegaHertz       Gauss      10(-4) cm-1
     1  C(13)              0.06433      72.32043      25.80573      24.12350
     2  H(1)              -0.00316     -14.13122      -5.04237      -4.71367
     3  H(1)              -0.00339     -15.17229      -5.41385      -5.06093
     4  C(13)             -0.00440      -4.94874      -1.76583      -1.65072
     5  H(1)               0.00177       7.91262       2.82342       2.63937
     6  H(1)              -0.00015      -0.65831      -0.23490      -0.21959
     7  H(1)               0.00037       1.64717       0.58775       0.54944
     8  O(17)              0.02019     -12.24209      -4.36828      -4.08352
     9  O(17)              0.03658     -22.17501      -7.91260      -7.39679
    10  H(1)              -0.01992     -89.04606     -31.77385     -29.70257
    11  C(13)             -0.01070     -12.02875      -4.29216      -4.01236
    12  C(13)              0.00534       5.99891       2.14056       2.00102
    13  H(1)              -0.00303     -13.52740      -4.82691      -4.51226
    14  H(1)              -0.00282     -12.60836      -4.49898      -4.20570
    15  C(13)              0.00017       0.18774       0.06699       0.06262
    16  H(1)              -0.00124      -5.54961      -1.98024      -1.85115
    17  H(1)              -0.00016      -0.70349      -0.25102      -0.23466
    18  H(1)              -0.00118      -5.29583      -1.88968      -1.76650
 --------------------------------------------------------
       Center         ----  Spin Dipole Couplings  ----
                      3XX-RR        3YY-RR        3ZZ-RR
 --------------------------------------------------------
     1   Atom        0.444857     -0.254497     -0.190361
     2   Atom       -0.000570     -0.023444      0.024015
     3   Atom        0.002721     -0.003862      0.001141
     4   Atom       -0.005663      0.010118     -0.004456
     5   Atom       -0.003372      0.006773     -0.003400
     6   Atom       -0.001538      0.005791     -0.004253
     7   Atom       -0.001916      0.004017     -0.002102
     8   Atom        0.543566     -0.267596     -0.275969
     9   Atom        1.574948     -0.919161     -0.655787
    10   Atom        0.176662     -0.094076     -0.082585
    11   Atom       -0.048543      0.028364      0.020179
    12   Atom        0.207984     -0.082703     -0.125280
    13   Atom        0.003113      0.015043     -0.018156
    14   Atom       -0.000065     -0.011272      0.011337
    15   Atom       -0.001617      0.000653      0.000964
    16   Atom        0.000955     -0.001829      0.000873
    17   Atom       -0.000521     -0.000842      0.001363
    18   Atom       -0.001460     -0.000701      0.002161
 --------------------------------------------------------
                        XY            XZ            YZ
 --------------------------------------------------------
     1   Atom        0.090849      0.226848      0.026922
     2   Atom        0.000647     -0.001942      0.020828
     3   Atom        0.016579     -0.002274     -0.029310
     4   Atom        0.003516      0.000790      0.003276
     5   Atom       -0.001423      0.001357      0.003801
     6   Atom        0.003063      0.000316     -0.000575
     7   Atom        0.005110      0.002697      0.004440
     8   Atom       -0.059620      0.136343      0.016439
     9   Atom       -0.238000      0.840875     -0.077574
    10   Atom        0.040393      0.068887      0.007129
    11   Atom       -0.046598     -0.017967     -0.015639
    12   Atom        0.127034      0.066629      0.024284
    13   Atom       -0.007352      0.002891      0.002458
    14   Atom        0.000234     -0.004895      0.006506
    15   Atom       -0.003656     -0.002858      0.001668
    16   Atom       -0.002009     -0.003023      0.001394
    17   Atom       -0.001756     -0.001877      0.002056
    18   Atom       -0.001912     -0.002925      0.003784
 --------------------------------------------------------


 ---------------------------------------------------------------------------------
              Anisotropic Spin Dipole Couplings in Principal Axis System
 ---------------------------------------------------------------------------------

       Atom             a.u.   MegaHertz   Gauss  10(-4) cm-1        Axes

              Baa    -0.2670   -35.833   -12.786   -11.952 -0.2422  0.8805  0.4074
     1 C(13)  Bbb    -0.2620   -35.155   -12.544   -11.726 -0.2176 -0.4585  0.8616
              Bcc     0.5290    70.987    25.330    23.679  0.9455  0.1200  0.3027
 
              Baa    -0.0313   -16.723    -5.967    -5.578 -0.0419  0.9346 -0.3531
     2 H(1)   Bbb    -0.0006    -0.317    -0.113    -0.106  0.9979  0.0565  0.0310
              Bcc     0.0319    17.040     6.080     5.684 -0.0489  0.3511  0.9351
 
              Baa    -0.0341   -18.201    -6.494    -6.071 -0.2977  0.7434  0.5989
     3 H(1)   Bbb     0.0004     0.201     0.072     0.067  0.8658 -0.0542  0.4975
              Bcc     0.0337    18.000     6.423     6.004  0.4023  0.6666 -0.6275
 
              Baa    -0.0064    -0.861    -0.307    -0.287  0.9785 -0.1943 -0.0696
     4 C(13)  Bbb    -0.0052    -0.692    -0.247    -0.231  0.0266 -0.2155  0.9761
              Bcc     0.0116     1.553     0.554     0.518  0.2046  0.9570  0.2057
 
              Baa    -0.0059    -3.143    -1.122    -1.048 -0.5767 -0.2937  0.7624
     5 H(1)   Bbb    -0.0022    -1.185    -0.423    -0.395  0.8129 -0.1129  0.5714
              Bcc     0.0081     4.328     1.544     1.444 -0.0817  0.9492  0.3038
 
              Baa    -0.0044    -2.352    -0.839    -0.784 -0.2410  0.1266  0.9622
     6 H(1)   Bbb    -0.0025    -1.340    -0.478    -0.447  0.9094 -0.3169  0.2695
              Bcc     0.0069     3.692     1.317     1.231  0.3390  0.9400 -0.0388
 
              Baa    -0.0049    -2.607    -0.930    -0.870  0.8891 -0.3946 -0.2318
     7 H(1)   Bbb    -0.0044    -2.366    -0.844    -0.789  0.0191 -0.4740  0.8803
              Bcc     0.0093     4.973     1.775     1.659  0.4573  0.7871  0.4139
 
              Baa    -0.3137    22.697     8.099     7.571 -0.1694 -0.5182  0.8383
     8 O(17)  Bbb    -0.2558    18.506     6.604     6.173 -0.0254  0.8526  0.5219
              Bcc     0.5694   -41.204   -14.703   -13.744  0.9852 -0.0671  0.1576
 
              Baa    -0.9423    68.186    24.330    22.744  0.1937  0.9284 -0.3170
     9 O(17)  Bbb    -0.9365    67.763    24.179    22.603 -0.2652  0.3607  0.8942
              Bcc     1.8788  -135.948   -48.510   -45.348  0.9445 -0.0891  0.3161
 
              Baa    -0.1026   -54.737   -19.531   -18.258 -0.2646  0.7020  0.6611
    10 H(1)   Bbb    -0.0969   -51.724   -18.457   -17.253 -0.0760 -0.6986  0.7114
              Bcc     0.1995   106.461    37.988    35.512  0.9613  0.1380  0.2382
 
              Baa    -0.0760   -10.197    -3.638    -3.401  0.8746  0.4254  0.2326
    11 C(13)  Bbb     0.0241     3.237     1.155     1.080 -0.3068  0.1140  0.9449
              Bcc     0.0519     6.959     2.483     2.321 -0.3755  0.8978 -0.2302
 
              Baa    -0.1381   -18.533    -6.613    -6.182 -0.1958  0.0192  0.9805
    12 C(13)  Bbb    -0.1303   -17.490    -6.241    -5.834 -0.3355  0.9382 -0.0854
              Bcc     0.2684    36.023    12.854    12.016  0.9215  0.3456  0.1773
 
              Baa    -0.0189   -10.088    -3.600    -3.365 -0.1643 -0.1066  0.9806
    13 H(1)   Bbb     0.0003     0.179     0.064     0.060  0.8901  0.4125  0.1940
              Bcc     0.0186     9.909     3.536     3.305 -0.4252  0.9047  0.0271
 
              Baa    -0.0132    -7.038    -2.511    -2.348 -0.1203  0.9534 -0.2769
    14 H(1)   Bbb    -0.0014    -0.737    -0.263    -0.246  0.9446  0.1957  0.2635
              Bcc     0.0146     7.775     2.774     2.594 -0.3054  0.2299  0.9241
 
              Baa    -0.0047    -0.630    -0.225    -0.210  0.8311  0.4817  0.2779
    15 C(13)  Bbb    -0.0008    -0.105    -0.037    -0.035  0.1056 -0.6273  0.7716
              Bcc     0.0055     0.735     0.262     0.245 -0.5460  0.6119  0.5722
 
              Baa    -0.0029    -1.547    -0.552    -0.516  0.5254  0.8438  0.1093
    16 H(1)   Bbb    -0.0019    -1.022    -0.365    -0.341  0.5069 -0.4136  0.7563
              Bcc     0.0048     2.569     0.917     0.857  0.6833 -0.3420 -0.6451
 
              Baa    -0.0025    -1.325    -0.473    -0.442  0.5777  0.8028 -0.1473
    17 H(1)   Bbb    -0.0015    -0.811    -0.290    -0.271  0.6535 -0.3469  0.6727
              Bcc     0.0040     2.136     0.762     0.713 -0.4890  0.4849  0.7251
 
              Baa    -0.0033    -1.781    -0.635    -0.594 -0.2312  0.7396 -0.6321
    18 H(1)   Bbb    -0.0030    -1.602    -0.572    -0.534  0.8829  0.4325  0.1831
              Bcc     0.0063     3.383     1.207     1.128 -0.4088  0.5157  0.7530
 

 ---------------------------------------------------------------------------------

 Calling FoFJK, ICntrl=  10100127 FMM=F ISym2X=0 I1Cent= 0 IOpClX= 1 NMat=1 NMatS=1 NMatT=0.
 ***** Axes restored to original set *****
 -------------------------------------------------------------------
 Center     Atomic                   Forces (Hartrees/Bohr)
 Number     Number              X              Y              Z
 -------------------------------------------------------------------
      1        6           0.000256071   -0.000122499   -0.000924788
      2        1          -0.000000814   -0.000002754   -0.000001555
      3        1           0.000000465   -0.000000744    0.000000780
      4        6          -0.000001785   -0.000000669    0.000000208
      5        1          -0.000007943   -0.000008134   -0.000010507
      6        1           0.000001868    0.000001416    0.000000760
      7        1           0.000001905    0.000001016   -0.000000506
      8        8           0.000216308   -0.000660351   -0.000424913
      9        8          -0.000267628    0.000747967    0.000579498
     10        1           0.000002106   -0.000000594    0.000009394
     11        6          -0.000205690    0.000048739    0.000767915
     12        6          -0.000002975   -0.000000180   -0.000002575
     13        1           0.000001151    0.000000700    0.000001792
     14        1           0.000006483   -0.000001600    0.000005979
     15        6          -0.000000484   -0.000001243   -0.000000742
     16        1          -0.000000239    0.000000320   -0.000000985
     17        1           0.000000734    0.000001768    0.000001442
     18        1           0.000000465   -0.000003158   -0.000001197
 -------------------------------------------------------------------
 Cartesian Forces:  Max     0.000924788 RMS     0.000243469
 FormGI is forming the generalized inverse of G from B-inverse, IUseBI=4.

 GradGradGradGradGradGradGradGradGradGradGradGradGradGradGradGradGradGrad
 Berny optimization.
 Internal  Forces:  Max     0.001109052 RMS     0.000187623
 Search for a saddle point.
 Step number   1 out of a maximum of  108
 All quantities printed in internal units (Hartrees-Bohrs-Radians)
 Swapping is turned off.
 Second derivative matrix not updated -- analytic derivatives used.
 ITU=  0
     Eigenvalues ---   -0.09073   0.00052   0.00214   0.00518   0.00815
     Eigenvalues ---    0.01594   0.01775   0.02404   0.02728   0.03668
     Eigenvalues ---    0.03767   0.04178   0.05679   0.05905   0.05951
     Eigenvalues ---    0.07739   0.08462   0.08520   0.10051   0.10618
     Eigenvalues ---    0.10981   0.12312   0.12537   0.13072   0.14009
     Eigenvalues ---    0.14552   0.16473   0.16804   0.18074   0.18516
     Eigenvalues ---    0.19915   0.20489   0.25667   0.31753   0.32398
     Eigenvalues ---    0.33506   0.33741   0.33963   0.34390   0.34514
     Eigenvalues ---    0.34897   0.35019   0.35446   0.35584   0.36441
     Eigenvalues ---    0.36559   0.41213   0.59033
 Eigenvectors required to have negative eigenvalues:
                          R10       R3        R9        R4        D7
   1                   -0.72897   0.58842   0.17863  -0.11335   0.10487
                          D6        A14       A4        D4        D5
   1                    0.10365  -0.08673  -0.07833  -0.07692  -0.07570
 RFO step:  Lambda0=3.020106880D-09 Lambda=-9.16530220D-04.
 Linear search not attempted -- option 19 set.
 Iteration  1 RMS(Cart)=  0.16577740 RMS(Int)=  0.04895551
 Iteration  2 RMS(Cart)=  0.14588085 RMS(Int)=  0.01000857
 Iteration  3 RMS(Cart)=  0.02370891 RMS(Int)=  0.00034750
 Iteration  4 RMS(Cart)=  0.00034000 RMS(Int)=  0.00031095
 Iteration  5 RMS(Cart)=  0.00000007 RMS(Int)=  0.00031095
 Variable       Old X    -DE/DX   Delta X   Delta X   Delta X     New X
                                 (Linear)    (Quad)   (Total)
    R1        2.04975  -0.00000   0.00000  -0.00008  -0.00008   2.04967
    R2        2.05261  -0.00000   0.00000  -0.00171  -0.00171   2.05089
    R3        2.47707   0.00000   0.00000   0.00442   0.00441   2.48149
    R4        2.74447  -0.00000   0.00000  -0.00744  -0.00744   2.73703
    R5        2.05653  -0.00000   0.00000   0.00034   0.00034   2.05687
    R6        2.05566  -0.00000   0.00000  -0.00027  -0.00027   2.05538
    R7        2.05736  -0.00000   0.00000  -0.00013  -0.00013   2.05723
    R8        2.69275   0.00001   0.00000  -0.00181  -0.00181   2.69094
    R9        2.64072  -0.00001   0.00000  -0.00215  -0.00215   2.63856
   R10        2.31077   0.00001   0.00000   0.00965   0.00965   2.32042
   R11        2.54180   0.00001   0.00000   0.00374   0.00374   2.54554
   R12        2.83968   0.00000   0.00000   0.00111   0.00111   2.84079
   R13        2.04172  -0.00000   0.00000  -0.00018  -0.00018   2.04154
   R14        2.04132   0.00000   0.00000  -0.00081  -0.00081   2.04051
   R15        2.06081   0.00000   0.00000  -0.00013  -0.00013   2.06068
   R16        2.05480  -0.00000   0.00000   0.00023   0.00023   2.05503
   R17        2.06234  -0.00000   0.00000   0.00023   0.00023   2.06257
    A1        1.98673   0.00001   0.00000   0.00113   0.00145   1.98817
    A2        1.76728  -0.00003   0.00000  -0.02007  -0.02038   1.74690
    A3        2.02902  -0.00051   0.00000  -0.00420  -0.00535   2.02367
    A4        1.76777  -0.00000   0.00000   0.04188   0.04202   1.80979
    A5        2.03267   0.00049   0.00000   0.00904   0.00964   2.04232
    A6        1.82547   0.00005   0.00000  -0.02945  -0.02960   1.79587
    A7        1.91889  -0.00000   0.00000  -0.00001  -0.00001   1.91888
    A8        1.92441  -0.00001   0.00000  -0.00453  -0.00453   1.91989
    A9        1.93499   0.00002   0.00000   0.00321   0.00321   1.93820
   A10        1.92421   0.00000   0.00000   0.00191   0.00191   1.92612
   A11        1.83516  -0.00000   0.00000   0.00138   0.00138   1.83654
   A12        1.92448  -0.00001   0.00000  -0.00163  -0.00163   1.92285
   A13        1.88585  -0.00001   0.00000   0.00130   0.00130   1.88715
   A14        1.81071   0.00001   0.00000  -0.01483  -0.01483   1.79588
   A15        2.11348  -0.00000   0.00000  -0.00114  -0.00115   2.11232
   A16        2.04196   0.00001   0.00000   0.00455   0.00453   2.04649
   A17        2.12599  -0.00001   0.00000  -0.00400  -0.00402   2.12197
   A18        2.11927  -0.00000   0.00000  -0.00032  -0.00032   2.11895
   A19        2.11281   0.00001   0.00000  -0.00060  -0.00061   2.11220
   A20        2.05108  -0.00001   0.00000   0.00096   0.00095   2.05203
   A21        1.93233   0.00000   0.00000  -0.00135  -0.00135   1.93098
   A22        1.94997  -0.00000   0.00000   0.00046   0.00046   1.95043
   A23        1.92286   0.00000   0.00000   0.00472   0.00472   1.92758
   A24        1.89384   0.00000   0.00000  -0.00072  -0.00072   1.89312
   A25        1.86660   0.00000   0.00000  -0.00248  -0.00247   1.86413
   A26        1.89584  -0.00000   0.00000  -0.00083  -0.00084   1.89501
   A27        3.16973   0.00016   0.00000   0.01596   0.01609   3.18582
   A28        3.06813  -0.00009   0.00000  -0.08400  -0.08417   2.98396
    D1       -1.18365  -0.00053   0.00000  -0.39053  -0.39186  -1.57551
    D2        3.04730  -0.00051   0.00000  -0.40422  -0.40454   2.64276
    D3        0.91740  -0.00111   0.00000  -0.42784  -0.42620   0.49121
    D4        0.27358  -0.00008   0.00000   0.10539   0.10545   0.37903
    D5       -2.93062  -0.00007   0.00000   0.09478   0.09483  -2.83579
    D6        2.69059  -0.00010   0.00000   0.11365   0.11357   2.80416
    D7       -0.51360  -0.00010   0.00000   0.10305   0.10294  -0.41066
    D8       -1.65836   0.00016   0.00000   0.15000   0.15004  -1.50832
    D9        1.42063   0.00016   0.00000   0.13940   0.13942   1.56005
   D10        1.09623  -0.00001   0.00000  -0.00591  -0.00591   1.09031
   D11       -3.11393  -0.00000   0.00000  -0.00345  -0.00345  -3.11738
   D12       -1.04001  -0.00000   0.00000  -0.00124  -0.00124  -1.04125
   D13       -1.78126  -0.00005   0.00000  -0.03538  -0.03538  -1.81664
   D14        3.10292   0.00000   0.00000  -0.01481  -0.01480   3.08813
   D15       -0.04664  -0.00000   0.00000  -0.00893  -0.00891  -0.05555
   D16        0.02698  -0.00000   0.00000  -0.00401  -0.00402   0.02295
   D17       -3.12258  -0.00001   0.00000   0.00187   0.00186  -3.12073
   D18        1.09251  -0.00000   0.00000   0.03957   0.03957   1.13208
   D19       -3.07768  -0.00000   0.00000   0.03803   0.03802  -3.03965
   D20       -0.96865  -0.00000   0.00000   0.04051   0.04051  -0.92814
   D21       -2.11217   0.00000   0.00000   0.02900   0.02899  -2.08317
   D22        0.00083  -0.00000   0.00000   0.02745   0.02745   0.02828
   D23        2.10986  -0.00000   0.00000   0.02994   0.02994   2.13980
         Item               Value     Threshold  Converged?
 Maximum Force            0.001109     0.000450     NO 
 RMS     Force            0.000188     0.000300     YES
 Maximum Displacement     0.965603     0.001800     NO 
 RMS     Displacement     0.256020     0.001200     NO 
 Predicted change in Energy=-7.351497D-04
 GradGradGradGradGradGradGradGradGradGradGradGradGradGradGradGradGradGrad

                          Input orientation:                          
 ---------------------------------------------------------------------
 Center     Atomic      Atomic             Coordinates (Angstroms)
 Number     Number       Type             X           Y           Z
 ---------------------------------------------------------------------
      1          6           0        0.966277    1.419068   -0.136447
      2          1           0        0.957297    2.107145    0.701951
      3          1           0        1.312261    1.861580   -1.065062
      4          6           0       -1.910438   -1.179903   -0.266291
      5          1           0       -1.068214   -1.381615   -0.925601
      6          1           0       -2.031281   -1.996692    0.441706
      7          1           0       -2.818721   -1.048832   -0.851936
      8          8           0       -1.670053   -0.025493    0.532006
      9          8           0       -1.536515    1.072127   -0.320616
     10          1           0       -0.324604    1.269670   -0.325293
     11          6           0        1.408508    0.070966    0.154817
     12          6           0        1.367621   -0.417316    1.409581
     13          1           0        1.649747   -1.437422    1.626190
     14          1           0        1.052269    0.200500    2.237111
     15          6           0        1.820091   -0.785360   -1.010154
     16          1           0        2.706214   -0.374515   -1.495024
     17          1           0        2.037173   -1.805834   -0.703378
     18          1           0        1.030610   -0.809232   -1.763447
 ---------------------------------------------------------------------
                    Distance matrix (angstroms):
                    1          2          3          4          5
     1  C    0.000000
     2  H    1.084640   0.000000
     3  H    1.085286   1.818965   0.000000
     4  C    3.879046   4.468343   4.502715   0.000000
     5  H    3.550457   4.350066   4.025472   1.088448   0.000000
     6  H    4.581161   5.083386   5.323147   1.087662   1.781951
     7  H    4.574786   5.160724   5.057759   1.088640   1.783381
     8  O    3.079581   3.388214   3.873740   1.423983   2.079880
     9  O    2.533428   2.887214   3.048436   2.283508   2.570246
    10  H    1.313147   1.843872   1.891280   2.918692   2.818269
    11  C    1.448372   2.156147   2.168794   3.571751   3.067808
    12  C    2.433842   2.653679   3.364564   3.759755   3.509450
    13  H    3.425427   3.727956   4.270848   4.040138   3.728546
    14  H    2.669472   2.449700   3.705554   4.117058   4.123383
    15  C    2.520291   3.470203   2.695775   3.824375   2.950419
    16  H    2.844302   3.747539   2.669850   4.844782   3.947759
    17  H    3.445028   4.295636   3.755828   4.020755   3.142097
    18  H    2.759816   3.819531   2.774943   3.320939   2.331237
                    6          7          8          9         10
     6  H    0.000000
     7  H    1.786620   0.000000
     8  O    2.006058   2.069289   0.000000
     9  O    3.200560   2.534723   1.396268   0.000000
    10  H    3.764327   3.445784   2.054907   1.227915   0.000000
    11  C    4.023638   4.487422   3.103081   3.146668   2.161266
    12  C    3.870885   4.799868   3.186083   3.694053   2.952852
    13  H    3.907141   5.124384   3.769861   4.498906   3.877459
    14  H    4.190396   5.107603   3.220169   3.742125   3.099163
    15  C    4.290489   4.648981   3.890599   3.897759   3.048262
    16  H    5.369008   5.602961   4.835534   4.633871   3.641082
    17  H    4.230836   4.916791   4.294103   4.604391   3.896109
    18  H    3.955748   3.963030   3.630004   3.494482   2.868226
                   11         12         13         14         15
    11  C    0.000000
    12  C    1.347042   0.000000
    13  H    2.120935   1.080338   0.000000
    14  H    2.116514   1.079792   1.847429   0.000000
    15  C    1.503281   2.489036   2.721123   3.479397   0.000000
    16  H    2.145804   3.198499   3.462351   4.122501   1.090462
    17  H    2.157336   2.615507   2.390128   3.693493   1.087475
    18  H    2.144130   3.214853   3.502512   4.126075   1.091467
                   16         17         18
    16  H    0.000000
    17  H    1.767199   0.000000
    18  H    1.751765   1.769218   0.000000
 Stoichiometry    C5H11O2(2)
 Framework group  C1[X(C5H11O2)]
 Deg. of freedom    48
 Full point group                 C1      NOp   1
 Largest Abelian subgroup         C1      NOp   1
[...]
 003213,0.0471159,1.0200737,-0.107836,0.048648,-0.9017624,-0.1444864,-0
 .2906654,-1.2763995,-0.2301856,-0.1969833,-0.3269779,0.0513442,-0.0114
 049,-0.0471983,0.0016414,0.0933633,-0.290636,-0.1391749,-0.0475659,0.4
 097801,-0.03495,0.1666253,-0.7703395,0.165318,0.0891808,-0.2579554,-0.
 0643628,-0.0713062,-0.1298541,0.0679851,0.0111371,0.4031415,-0.0645872
 ,-0.0540984,0.1385401,0.0614693,0.0006536,0.0838788,-0.0622938,0.04211
 3,0.0149533,-0.0135004,0.053995,0.0799058,0.0406462,0.0516162,0.033418
 3,-0.0001615,-0.0727878,0.0169977,-0.0285072,-0.0145667,0.1017218,0.05
 15891,0.0367658,-0.0002125,0.0726496,-0.0303155,0.0197615,-0.0767126,-
 0.0321555,-0.0572918,-0.0320673,0.097444,-0.0756637,0.0190726,0.010851
 9,0.0740298,-0.0033155,0.0105064,0.0564484,0.0260153,0.0078393,0.05989
 18,-0.1004271,-0.0024791,-0.0176179,0.0759081,0.0217657,-0.0267319,-0.
 0021852,-0.1121966,0.0306035,0.0468885,-0.0269866,-0.0338312,-0.016577
 ,-0.0269422\Polar=108.6177653,1.83622,77.2169017,7.4110563,-6.4225248,
 75.5226698\PG=C01 [X(C5H11O2)]\NImag=1\\0.15526703,-0.01067286,0.55716
 903,-0.09687512,0.00585080,0.60317778,-0.01947210,-0.00664960,0.001117
 39,0.02997804,0.00597817,-0.16165545,-0.13210586,-0.00554471,0.1695704
 8,0.00875017,-0.13543102,-0.22443027,-0.00417104,0.14662275,0.23405302
 ,-0.05208000,-0.04109206,0.09175517,0.00055953,0.00016487,-0.00242118,
 0.06117771,-0.02996976,-0.10135049,0.09471938,0.00690908,0.01018703,-0
 .01612350,0.03583772,0.10324390,0.08055953,0.09385490,-0.25103912,0.00
 788968,0.01110807,-0.01498367,-0.08732613,-0.10677155,0.26697698,0.000
 15522,-0.00098485,-0.00101634,-0.00031352,0.00012142,0.00010167,0.0003
 0607,0.00001410,0.00007953,0.58457992,-0.01216877,0.00178925,-0.004704
 41,0.00148214,0.00005756,0.00002804,0.00221512,0.00042744,0.00063209,-
 0.01213529,0.47606845,-0.00507185,0.00068279,-0.00176169,0.00072769,-0
 .00000674,-0.00014119,0.00075471,0.00023888,0.00030148,-0.01249218,-0.
 07993417,0.58337073,-0.00060545,-0.00016589,-0.00022590,0.00007638,0.0
 0000426,-0.00001160,0.00020026,0.00003520,0.00005105,-0.24864392,0.042
 30352,0.10900794,0.26222189,0.00189616,-0.00033283,0.00092295,-0.00015
 595,0.00000216,0.00001198,-0.00037727,-0.00006630,-0.00009758,0.038025
 29,-0.05594492,-0.01574565,-0.04667844,0.06543749,0.00231801,-0.000777
 05,0.00099162,-0.00019942,0.00000728,0.00001447,-0.00031357,-0.0000340
 3,-0.00013164,0.10478948,-0.02084693,-0.10845282,-0.11925206,0.0331659
 7,0.11938292,0.00041666,-0.00018282,0.00013329,-0.00005230,-0.00000856
 ,-0.00001130,-0.00005811,0.00001720,-0.00003533,-0.06067224,-0.0348166
 7,0.03419043,-0.00333695,-0.01960792,0.01821613,0.05744175,0.00085321,
 -0.00028096,0.00026459,-0.00014112,0.00000685,0.00005347,-0.00009407,-
 0.00003830,-0.00005251,-0.03379849,-0.17515642,0.12311374,0.00094398,0
 .00691962,-0.00433906,0.04086965,0.20250602,-0.00007094,0.00000368,-0.
 00006192,-0.00000319,0.00000497,0.00002002,0.00001741,-0.00001416,-0.0
 0000146,0.03664440,0.13515452,-0.18450745,0.00065275,0.01017367,-0.008
 74057,-0.03832291,-0.13908620,0.19018092,0.00067874,0.00001099,0.00021
 768,-0.00006649,-0.00002942,-0.00001267,-0.00014438,-0.00004120,-0.000
 02557,-0.21013717,0.02487058,-0.12614397,-0.01970745,0.00449019,-0.017
 67714,0.00667786,-0.00008346,0.00576069,0.21999477,0.00101460,-0.00014
 176,0.00061353,-0.00008132,0.00001542,-0.00002229,-0.00029548,-0.00001
 389,-0.00006549,0.02881796,-0.05169328,0.02808908,0.00321341,0.0013749
 6,0.00439952,0.01803499,-0.00014117,0.01271159,-0.02387552,0.05873840,
 0.00203325,-0.00043581,0.00063416,-0.00026334,0.00000094,0.00000023,-0
 .00029982,-0.00006303,-0.00008666,-0.12504574,0.02092016,-0.15296558,0
 .01274063,-0.00106435,0.01128436,-0.01632383,0.00201591,-0.01136552,0.
 14163468,-0.01338912,0.16895795,-0.00174540,0.00385314,0.00307103,0.00
 047500,-0.00011723,-0.00021475,-0.00123417,-0.00004614,-0.00072902,-0.
 06317385,-0.01224700,-0.00992861,0.01039079,0.02322467,0.01545753,-0.0
 0129484,-0.00669445,-0.00387441,0.00304445,-0.02727919,-0.01537734,0.0
 9134303,0.03875068,-0.00437194,0.01302834,-0.00447593,-0.00082646,-0.0
 0043926,-0.00513861,-0.00118929,-0.00182841,-0.00924234,-0.13512516,-0
 .09287207,0.00063742,-0.02449433,-0.01551861,-0.00390927,-0.02707505,-
 0.01316011,-0.00681970,-0.01470887,-0.01118814,0.06327844,0.35735940,-
 0.02963306,0.00438620,-0.00950047,0.00375115,0.00068822,0.00047740,0.0
 0382650,0.00073467,0.00137976,-0.00237091,-0.06273482,-0.15003577,-0.0
 0208302,-0.02398104,-0.01409651,0.00334441,0.02202406,0.01215783,-0.00
 381500,-0.02854226,-0.01684666,-0.02151183,0.01938366,0.30347239,-0.14
 497155,0.00516207,-0.03041437,0.00949092,0.00156062,0.00064196,0.00973
 364,0.00170454,0.00402030,-0.00304285,-0.01891184,0.00388912,0.0005785
 9,0.00343606,-0.00051314,0.00138144,-0.00151220,-0.00123774,0.00115885
 ,0.00226281,0.00379319,-0.03454234,-0.00362420,-0.00741011,0.06782668,
 -0.05652556,0.00962486,-0.01595180,0.00591938,0.00137599,0.00112754,0.
 00600569,0.00122369,0.00181145,-0.00789923,-0.06130639,0.03521817,-0.0
 0039670,0.00713444,0.00367389,-0.00085752,-0.00660200,-0.00568656,0.00
 153653,0.00697051,0.00335649,-0.02154271,-0.13838738,0.06383986,-0.005
 56224,0.19937434,0.02786022,-0.00629170,0.01247511,-0.00396294,-0.0001
 1204,0.00046864,-0.00488214,-0.00109247,-0.00079387,-0.00007497,0.0094
 5882,0.01413536,-0.00089134,-0.00264489,-0.00009408,-0.00126703,-0.003
 63490,0.00226424,0.00034804,-0.00382485,0.00084624,0.01483805,0.103029
 69,-0.12968857,0.02883297,-0.10422533,0.12611406,0.11054071,-0.0271165
 8,0.03176352,-0.01931273,-0.00287581,-0.00111648,-0.02174334,-0.004292
 98,-0.00583412,0.00098099,0.01933254,0.00501535,0.00117188,-0.00331200
 ,-0.00291265,-0.00051006,0.00001706,0.00052760,-0.00117588,-0.00215364
 ,-0.00287017,-0.00529172,-0.06437080,0.05160842,0.08264675,0.06998236,
 -0.05448081,-0.11406548,0.02606129,-0.03107092,0.00765906,-0.01293157,
 -0.00252198,-0.00329580,-0.01012253,-0.00183996,-0.00169060,-0.0029260
 0,0.00328196,0.00323390,0.00072034,-0.00064159,-0.00101775,0.00022110,
 -0.00061391,-0.00016169,-0.00000818,-0.00049332,-0.00068717,-0.0180406
 4,-0.02071086,0.01209203,0.03697827,-0.00598985,-0.00016994,-0.0287533
 1,0.05475254,0.00264144,-0.00125854,-0.02232370,-0.01343823,-0.0031601
 4,-0.00404972,0.01303349,0.00210286,0.00023861,-0.00068666,0.00058285,
 -0.00011714,0.00023520,-0.00034658,0.00021774,0.00012470,-0.00003013,0
 .00010739,0.00002748,0.00005988,-0.00024790,0.01685455,0.00611197,-0.0
 0232939,-0.01032719,0.00885929,-0.02065877,-0.00328902,-0.01699003,0.0
 5297297,-0.06133906,0.06083454,-0.00023464,-0.00242542,-0.00130036,-0.
 00026546,0.00317751,-0.01277804,0.00194895,0.00002159,0.00033158,-0.00
 014525,-0.00095378,-0.00079749,-0.00053582,0.00007839,-0.00025035,-0.0
 0000633,-0.00019195,0.00016522,-0.00013441,0.00224813,-0.00416831,0.00
 374499,0.00925090,0.00870906,-0.00536842,-0.03365781,0.01047377,-0.005
 47425,0.22596102,0.00943222,-0.22037760,0.01650745,0.01443980,-0.01297
 092,0.00484433,0.01172479,-0.00588871,0.00266424,-0.00040916,-0.001042
 83,-0.00064573,0.00028068,0.00040649,0.00085331,0.00023377,0.00043473,
 -0.00004832,0.00029429,-0.00023284,0.00030468,-0.00689927,0.00827282,-
 0.00732461,-0.02401843,-0.01493963,0.00908352,0.05242220,0.01038083,0.
 00375768,-0.10492024,0.51314533,0.03522197,0.00511172,-0.08940148,0.00
 643752,-0.02626802,0.00661627,-0.01526883,0.02364234,-0.00511860,-0.00
 015721,0.00452322,0.00275517,-0.00052366,-0.00138848,-0.00146755,0.000
 13563,-0.00082256,-0.00017604,-0.00031677,0.00001689,-0.00087872,0.004
 61448,-0.01282307,0.00888769,0.01668698,0.01685419,-0.01220607,-0.0422
 6601,-0.00605046,-0.00349549,-0.05600045,-0.06928613,0.72974456,0.0077
 0600,0.00730815,-0.01175891,-0.00127462,0.00035343,-0.00045887,0.00131
 721,0.00242599,0.00062665,0.00010873,-0.00047483,-0.00013681,-0.000206
 78,0.00000248,0.00024550,0.00022325,-0.00002296,-0.00010045,-0.0001300
 2,0.00034826,0.00008663,-0.00026901,0.00006830,0.00023401,0.00019974,0
 .00014358,-0.00027048,-0.00043359,-0.00041671,-0.00007327,-0.06095721,
 0.01468973,0.01242432,0.16857581,0.01280602,-0.02811897,0.03975534,-0.
 00190062,0.00084459,0.00136732,0.00192984,-0.00586280,0.00119611,0.000
 12863,-0.00065195,-0.00072508,-0.00037114,0.00000949,0.00001391,0.0000
 5705,0.00004315,0.00005789,-0.00020891,0.00020514,0.00008006,0.0017173
 9,0.00114095,-0.00096315,0.00135907,0.00053535,0.00011633,-0.00621849,
 -0.00343864,0.00124010,0.01028225,-0.14257249,0.12861645,-0.16421339,0
 .62735506,-0.03121227,0.03440191,-0.01774693,0.00282231,-0.00002808,0.
 00064937,0.00267830,0.00099681,0.00178447,-0.00041246,-0.00234324,-0.0
 0161399,0.00030733,0.00062779,0.00071533,-0.00000787,0.00047374,0.0000
 3592,0.00022174,-0.00013832,0.00048645,-0.00327386,0.00674211,-0.00515
 424,-0.00973132,-0.01035208,0.00732491,0.02591997,0.00766792,0.0007772
 0,0.02347913,0.09906833,-0.42456015,-0.07470415,-0.06942402,0.76267877
 ,0.00822791,0.00111006,0.00050299,-0.00022026,0.00004772,0.00037669,-0
 .00064534,0.00081589,-0.00046061,0.00000162,-0.00000258,-0.00003571,0.
 00006821,0.00008256,-0.00012073,-0.00015171,-0.00001600,0.00004346,0.0
 0006854,-0.00007394,0.00001951,-0.00006070,0.00051878,-0.00034318,-0.0
 0046018,-0.00077094,0.00055651,0.00152407,-0.00043563,0.00042453,0.005
 21684,0.00126595,0.00109612,-0.05834388,0.08481539,-0.01142795,0.04947
 248,0.00060675,0.00137361,0.00208646,-0.00005385,0.00047419,0.00001708
 ,0.00039887,-0.00004003,0.00018014,0.00000851,-0.00036818,-0.00013957,
 -0.00001139,0.00003027,0.00008073,0.00004628,0.00005021,-0.00000646,0.
 00000889,0.00005620,0.00005523,0.00011956,0.00064448,-0.00030603,-0.00
 055149,-0.00053044,0.00048127,0.00120295,0.00005071,0.00009125,0.00525
 026,-0.00908802,-0.00094666,0.08418591,-0.30811567,0.05006496,-0.09228
 565,0.32406421,0.00221567,0.00104639,-0.00472978,0.00003635,0.00023439
 ,0.00018083,-0.00074407,0.00153233,-0.00009078,-0.00003921,0.00005702,
 0.00012684,0.00003315,0.00003219,-0.00006308,-0.00003058,-0.00001062,0
 .00000695,0.00003185,-0.00000531,-0.00001367,-0.00006846,-0.00018548,0
 .00014575,-0.00002973,0.00010929,-0.00010389,0.00027409,-0.00007304,-0
 .00002718,-0.00892948,0.02856879,-0.00218331,-0.00965374,0.04460767,-0
 .06609920,0.01208975,-0.05567665,0.06453148,-0.00418421,-0.00082096,-0
 .00058546,0.00035062,-0.00044298,-0.00043683,0.00007185,-0.00035042,0.
 00016027,-0.00006552,0.00030092,0.00005107,-0.00002698,-0.00005121,-0.
 00002820,-0.00004152,-0.00007332,-0.00000864,-0.00003172,-0.00005223,-
 0.00002085,0.00011223,-0.00126779,0.00077809,0.00098267,0.00138089,-0.
 00096313,-0.00215694,-0.00008878,-0.00039314,0.00280975,0.00038112,0.0
 0061480,-0.06196125,0.05666561,0.07075361,0.00075369,0.00340801,0.0060
 7558,0.05343800,-0.00123005,0.00070463,0.00120878,-0.00025408,-0.00005
 145,-0.00029290,-0.00000409,-0.00006118,-0.00003057,0.00002980,0.00007
 535,-0.00009923,-0.00003331,-0.00004265,0.00003012,-0.00001266,-0.0000
 4914,-0.00001757,-0.00002659,-0.00000668,0.00001175,0.00018791,-0.0005
 4661,0.00052830,0.00062893,0.00063253,-0.00041651,-0.00116684,-0.00010
 057,-0.00008708,-0.00362841,0.00862303,0.01090998,0.05677191,-0.148366
 54,-0.12565841,0.00743964,-0.00992591,-0.02069220,-0.06159244,0.147650
 60,-0.00025231,-0.00197828,0.00131650,-0.00012325,0.00099428,0.0001062
 0,0.00005056,0.00004920,0.00047115,0.00006978,-0.00019960,-0.00011879,
 -0.00003110,0.00002996,0.00001016,-0.00003603,-0.00001203,0.00000610,-
 0.00000525,0.00004644,0.00004957,0.00030965,-0.00031241,0.00052705,0.0
 0029278,0.00061293,-0.00034201,-0.00072480,-0.00008001,-0.00030368,0.0
 0957716,-0.01891419,-0.02015587,0.06908491,-0.12045162,-0.22436634,-0.
 00231207,0.00526416,0.00712399,-0.07698663,0.13190661,0.23913564,-0.00
 088950,0.00891025,0.00942912,0.00175498,0.00143901,-0.00061616,-0.0000
 9147,-0.00055230,-0.00014959,0.00016732,-0.00009379,-0.00016568,-0.000
 84183,-0.00027900,0.00046250,0.00003373,-0.00000635,-0.00006702,-0.000
 09855,-0.00000813,0.00006218,-0.00009701,-0.00016997,0.00024520,0.0000
 8004,0.00017497,-0.00032077,0.00055038,-0.00038931,0.00039890,-0.08837
 481,0.02399628,0.02953211,0.00654165,0.00211249,0.00365244,-0.00613666
 ,-0.00218215,-0.00162731,0.01064108,0.00348672,0.00074714,0.53754154,0
 .01168285,-0.02352110,-0.02550381,0.00325114,-0.00406834,0.00105536,-0
 .00060513,0.00152021,-0.00116692,0.00024336,-0.00026107,-0.00021278,-0
 .00039605,0.00019380,0.00011084,-0.00010663,-0.00000924,0.00008068,-0.
 00013217,0.00003295,0.00005157,0.00029942,0.00002767,0.00010731,0.0002
 6742,0.00038407,-0.00021932,-0.00134727,-0.00068056,-0.00011953,0.0257
 2311,-0.12493751,-0.05937408,-0.00182617,0.00873565,0.00823708,-0.0022
 2724,0.00012719,0.00156602,0.00283580,0.00035919,0.00365833,-0.0018043
 2,0.56730565,0.00391181,-0.00055307,0.00614684,-0.00146692,0.00302795,
 0.00052628,-0.00090525,0.00072458,0.00033267,-0.00006353,0.00086356,0.
 00002515,-0.00020897,-0.00041966,0.00037879,0.00021788,-0.00011543,-0.
 00013574,-0.00002774,-0.00003245,-0.00010652,-0.00002275,-0.00162593,0
 .00130559,0.00266567,0.00183130,-0.00129852,-0.00442117,-0.00075975,-0
 .00056417,0.02785091,-0.05163939,-0.16055330,0.01195518,-0.01841985,-0
 .03158217,-0.00048690,-0.00154850,0.00134799,0.00116401,0.00231442,-0.
 00213000,0.01587462,-0.04486241,0.51391789,0.00064009,-0.00068167,0.00
 061855,0.00037637,0.00018320,-0.00015699,-0.00020776,0.00055235,-0.000
 32378,0.00031005,-0.00032056,-0.00023700,-0.00008374,0.00015740,0.0000
 6977,-0.00008432,0.00003273,0.00005178,-0.00008851,0.00002965,0.000061
 42,0.00004119,0.00026490,-0.00009990,-0.00009374,-0.00003301,0.0001349
 1,0.00006729,-0.00019406,-0.00004902,-0.00607947,-0.00225784,0.0032196
 7,-0.00025091,0.00094153,0.00040086,-0.00004910,-0.00001967,-0.0000264
 4,0.00025831,-0.00004778,0.00015733,-0.22108075,-0.08562388,0.09062996
 ,0.23966666,0.00070779,0.00063563,-0.00041780,-0.00047157,-0.00004011,
 0.00013097,-0.00018631,-0.00028402,0.00017007,0.00013262,-0.00009956,-
 0.00021652,-0.00004537,-0.00008053,0.00008254,0.00000650,0.00000398,0.
 00000283,-0.00004106,0.00001906,0.00002806,0.00001146,-0.00006918,0.00
 024531,0.00048019,0.00027904,-0.00003243,-0.00086891,0.00000121,-0.000
 31945,0.01697150,0.00821916,-0.00712591,0.00031118,-0.00112561,-0.0011
 1722,0.00007073,0.00023585,-0.00015254,-0.00095549,-0.00002612,-0.0004
 4788,-0.08485151,-0.09060093,0.04398886,0.09416084,0.09467986,-0.00215
 633,0.00167959,-0.00016760,-0.00037191,-0.00003747,-0.00000230,0.00032
 638,-0.00023748,0.00058356,0.00012508,-0.00043095,-0.00031230,-0.00004
 188,0.00012442,0.00000439,-0.00008694,0.00004955,0.00005032,-0.0000431
 6,0.00000672,0.00007800,-0.00011009,0.00050936,-0.00015242,-0.00044178
 ,-0.00044610,0.00041040,0.00103829,0.00046122,0.00011444,0.02298685,0.
 00914791,-0.01454933,0.00095520,-0.00273918,-0.00242565,0.00112402,0.0
 0027818,0.00019899,-0.00192452,-0.00054652,-0.00105783,0.09131731,0.04
 528160,-0.08831018,-0.10068679,-0.04632431,0.09980248,0.00144662,0.001
 10961,0.00254366,-0.00002810,0.00072789,-0.00008017,-0.00020752,-0.000
 03013,-0.00025357,-0.00011709,0.00021829,0.00033063,0.00003462,0.00016
 082,-0.00024094,-0.00006133,-0.00001609,0.00002684,0.00009340,-0.00004
 596,-0.00007892,0.00006196,-0.00033781,0.00002388,0.00015212,0.0001854
 3,-0.00009292,-0.00001428,-0.00038805,-0.00011669,-0.00387383,0.009096
 34,-0.00337032,-0.00022874,-0.00027923,-0.00078579,0.00042965,-0.00018
 196,0.00026649,-0.00017400,-0.00019837,-0.00010041,-0.05887091,0.05042
 944,-0.01502578,0.00687531,-0.02564254,0.00720086,0.05879931,0.0000949
 5,-0.00094589,-0.00370573,0.00074945,-0.00070548,0.00012246,-0.0000763
 2,0.00041475,-0.00011752,0.00003025,-0.00028502,-0.00023395,0.00005185
 ,-0.00003286,0.00008539,0.00003679,0.00002658,-0.00000966,-0.00002266,
 0.00004382,0.00005978,0.00013350,0.00044882,-0.00017686,-0.00017735,-0
 .00022811,0.00028074,0.00027235,0.00003402,-0.00006654,0.00366641,-0.0
 1700812,0.00654563,-0.00062736,0.00096947,0.00193293,-0.00019715,0.000
 76309,-0.00077370,-0.00006333,0.00044253,0.00005792,0.05114362,-0.2855
 7629,0.06959476,0.00290200,-0.01098443,0.00299803,-0.05745234,0.310476
 48,0.00133333,-0.00249170,-0.00417532,0.00063364,-0.00125548,0.0003815
 0,-0.00016970,-0.00011659,0.00000931,-0.00002031,0.00000607,0.00007108
 ,0.00003353,0.00008496,-0.00005663,-0.00001576,0.00000373,0.00002060,0
 .00001835,0.00000598,-0.00002178,0.00006923,-0.00010897,0.00000380,0.0
 0011024,0.00015507,0.00001551,-0.00025997,-0.00013225,-0.00015628,0.00
 567298,-0.02562521,0.00767188,0.00015827,-0.00121901,0.00160899,-0.000
 05506,0.00052287,-0.00032241,-0.00013672,0.00016330,0.00029484,-0.0161
 0825,0.07335018,-0.06988354,-0.00391560,0.01152225,-0.00437167,0.01512
 650,-0.07598122,0.07493536,0.00020828,0.00006846,-0.00004168,0.0001036
 9,-0.00026151,0.00010302,-0.00013171,-0.00025110,-0.00019824,-0.000465
 34,0.00011664,0.00039013,-0.00033575,-0.00021635,0.00023475,0.00001029
 ,-0.00000776,-0.00003331,0.00005551,-0.00002151,-0.00001706,-0.0000077
 5,0.00000622,-0.00028962,-0.00037167,-0.00045000,0.00000424,0.00087974
 ,0.00024002,0.00010719,0.00908920,0.00024776,0.00791967,-0.00061638,0.
 00037650,0.00131999,0.00030481,0.00005018,0.00012608,-0.00077607,-0.00
 035030,0.00028256,-0.18082923,-0.00066369,-0.13164103,-0.02021698,0.00
 020995,-0.01921060,-0.00431722,-0.00046466,-0.00247470,0.19741656,0.00
 068230,0.00087090,-0.00022726,-0.00009068,0.00030591,0.00022345,-0.000
 28502,-0.00038205,0.00020408,-0.00015656,0.00023476,0.00025495,-0.0000
 9239,0.00012730,0.00002994,-0.00002129,-0.00002496,0.00000089,0.000077
 39,-0.00002466,-0.00005700,0.00004112,-0.00038902,-0.00000087,0.000517
 77,0.00044896,0.00021402,-0.00075282,-0.00039910,-0.00042786,-0.014564
 51,-0.00042373,-0.01213505,0.00097250,-0.00158618,-0.00115223,-0.00015
 760,0.00019823,-0.00018453,0.00078660,0.00068897,-0.00022383,-0.000926
 50,-0.04903134,-0.00236899,-0.01004614,-0.00076328,-0.00977457,0.02264
 467,0.00214665,0.02111604,0.00137115,0.04800264,-0.00157353,0.00219919
 ,0.00059627,0.00058451,0.00028498,0.00011292,-0.00011184,-0.00028822,0
 .00016780,0.00056956,-0.00103223,-0.00075910,0.00020797,0.00051433,0.0
 0010311,-0.00022490,0.00010463,0.00013840,-0.00019323,0.00007046,0.000
 19607,-0.00010340,0.00125733,-0.00055322,-0.00082780,-0.00078760,0.001
 13131,0.00202795,-0.00000562,-0.00015494,-0.01816644,-0.00131664,-0.02
 092966,0.00138601,-0.00310930,-0.00251273,-0.00099137,-0.00049846,-0.0
 0002952,0.00188670,0.00076774,-0.00056667,-0.13266674,-0.00204012,-0.1
 6941705,0.01015128,-0.00001684,0.01010671,-0.00537335,-0.00061245,-0.0
 0602523,0.14341863,0.00450883,0.18839553\\0.00000553,0.00000132,-0.000
 00150,-0.00000092,-0.00000110,0.00000052,0.00000038,0.00000192,0.00000
 108,0.00000028,0.00000052,0.00000033,0.00000284,0.00000088,-0.00000102
 ,0.00000022,0.00000035,0.00000044,-0.00000090,0.00000022,0.00000083,-0
 .00000001,0.00000030,0.00000390,0.00000437,0.00000264,-0.00000299,-0.0
 0000285,-0.00000191,0.00000122,-0.00000595,-0.00000393,-0.00000097,0.0
 0000106,0.00000023,-0.00000068,0.00000011,-0.00000039,-0.00000049,0.00
 000014,-0.00000030,0.00000002,-0.00000070,-0.00000079,0.00000065,-0.00
 000142,0.00000088,-0.00000169,0.00000147,0.00000048,-0.00000027,-0.000
 00366,-0.00000130,0.00000061\\\@


 THERE IS AN OLD, OLD RECIPE IN MAINE FOR STEWING COOT. PLACE THE
 BIRD IN A KETTLE OF WATER WITH A RED BUILDING BRICK FREE OF MORTAR AND
 BLEMISHES. PARBOIL THE COOT AND BRICK TOGETHER FOR THREE HOURS.
 POUR OFF THE WATER, REFILL THE KETTLE, AND AGAIN PARBOIL FOR THREE HOURS.
 ONCE AGAIN POUR OFF THE WATER, FOR THE LAST TIME ADD FRESH WATER,
 AND LET THE COOT AND BRICK SIMMER TOGETHER OVERNIGHT. IN THE MORNING,
 THROW AWAY THE COOT AND EAT THE BRICK.
 Job cpu time:       3 days  6 hours 14 minutes  3.9 seconds.
 Elapsed time:       0 days  2 hours  1 minutes  3.3 seconds.
 File lengths (MBytes):  RWF= 108510 Int=      0 D2E=      0 Chk=     21 Scr=      1
 Normal termination of Gaussian 16 at Tue Jun 25 10:30:25 2019.
