 Entering Gaussian System, Link 0=g16
 Initial command:
 /ichec/packages/gaussian/16b01/l1.exe "/localscratch/353445/Gau-49568.inp" -scrdir="/localscratch/353445/"
 Entering Link 1 = /ichec/packages/gaussian/16b01/l1.exe PID=     49711.
  
 Copyright (c) 1988-2017, Gaussian, Inc.  All Rights Reserved.
  
 This is part of the Gaussian(R) 16 program.  It is based on
 the Gaussian(R) 09 system (copyright 2009, Gaussian, Inc.),
 the Gaussian(R) 03 system (copyright 2003, Gaussian, Inc.),
 the Gaussian(R) 98 system (copyright 1998, Gaussian, Inc.),
 the Gaussian(R) 94 system (copyright 1995, Gaussian, Inc.),
 the Gaussian 92(TM) system (copyright 1992, Gaussian, Inc.),
 the Gaussian 90(TM) system (copyright 1990, Gaussian, Inc.),
 the Gaussian 88(TM) system (copyright 1988, Gaussian, Inc.),
 the Gaussian 86(TM) system (copyright 1986, Carnegie Mellon
 University), and the Gaussian 82(TM) system (copyright 1983,
 Carnegie Mellon University). Gaussian is a federally registered
 trademark of Gaussian, Inc.
  
 This software contains proprietary and confidential information,
 including trade secrets, belonging to Gaussian, Inc.
  
 This software is provided under written license and may be
 used, copied, transmitted, or stored only in accord with that
 written license.
  
 The following legend is applicable only to US Government
 contracts under FAR:
  
                    RESTRICTED RIGHTS LEGEND
  
 Use, reproduction and disclosure by the US Government is
 subject to restrictions as set forth in subparagraphs (a)
 and (c) of the Commercial Computer Software - Restricted
 Rights clause in FAR 52.227-19.
  
 Gaussian, Inc.
 340 Quinnipiac St., Bldg. 40, Wallingford CT 06492
  
  
 ---------------------------------------------------------------
 Warning -- This program may not be used in any manner that
 competes with the business of Gaussian, Inc. or will provide
 assistance to any competitor of Gaussian, Inc.  The licensee
 of this program is prohibited from giving any competitor of
 Gaussian, Inc. access to this program.  By using this program,
 the user acknowledges that Gaussian, Inc. is engaged in the
 business of creating and licensing software in the field of
 computational chemistry and represents and warrants to the
 licensee that it is not a competitor of Gaussian, Inc. and that
 it will not use this program in any manner prohibited above.
 ---------------------------------------------------------------
  

 Cite this work as:
 Gaussian 16, Revision B.01,
 M. J. Frisch, G. W. Trucks, H. B. Schlegel, G. E. Scuseria, 
 M. A. Robb, J. R. Cheeseman, G. Scalmani, V. Barone, 
 G. A. Petersson, H. Nakatsuji, X. Li, M. Caricato, A. V. Marenich, 
 J. Bloino, B. G. Janesko, R. Gomperts, B. Mennucci, H. P. Hratchian, 
 J. V. Ortiz, A. F. Izmaylov, J. L. Sonnenberg, D. Williams-Young, 
 F. Ding, F. Lipparini, F. Egidi, J. Goings, B. Peng, A. Petrone, 
 T. Henderson, D. Ranasinghe, V. G. Zakrzewski, J. Gao, N. Rega, 
 G. Zheng, W. Liang, M. Hada, M. Ehara, K. Toyota, R. Fukuda, 
 J. Hasegawa, M. Ishida, T. Nakajima, Y. Honda, O. Kitao, H. Nakai, 
 T. Vreven, K. Throssell, J. A. Montgomery, Jr., J. E. Peralta, 
 F. Ogliaro, M. J. Bearpark, J. J. Heyd, E. N. Brothers, K. N. Kudin, 
 V. N. Staroverov, T. A. Keith, R. Kobayashi, J. Normand, 
 K. Raghavachari, A. P. Rendell, J. C. Burant, S. S. Iyengar, 
 J. Tomasi, M. Cossi, J. M. Millam, M. Klene, C. Adamo, R. Cammi, 
 J. W. Ochterski, R. L. Martin, K. Morokuma, O. Farkas, 
 J. B. Foresman, and D. J. Fox, Gaussian, Inc., Wallingford CT, 2016.
 
 ******************************************
 Gaussian 16:  ES64L-G16RevB.01 20-Dec-2017
                24-Jun-2019 
 ******************************************
 %mem=80GB
 %nproc=40
 Will use up to   40 processors via shared memory.
 ----------------------------------------------------------------------
 # opt=(calcfc,ts,noeigentest,maxcyc=500) freq=noraman uB2PLYPD3/cc-pvt
 z
 ----------------------------------------------------------------------
 1/5=1,6=500,10=4,11=1,18=20,38=1/1,3;
 2/9=110,12=2,17=6,18=5,40=1/2;
 3/5=16,6=1,11=2,25=1,30=1,71=2,74=-60,116=2,140=1/1,2,3;
 4//1;
 5/5=2,38=5/2;
 8/6=3,8=1,10=1,19=11,30=-1/1;
 9/15=3,16=-3/6;
 11/6=1,8=1,15=11,17=12,24=-1,27=1,28=-2,29=300,32=6,42=3/1,2,10;
 10/6=2,21=1/2;
 8/6=4,8=1,10=1,19=11,30=-1/11,4;
 10/5=1,20=4/2;
 11/12=2,14=11,16=1,17=2,28=-2,42=3,76=2/2,10,12;
 6/7=2,8=2,9=2,10=2/1;
 7/10=1,12=2,25=1,44=2/1,2,3,16;
 1/5=1,6=500,10=4,11=1,18=20/3(2);
 2/9=110/2;
 99//99;
 2/9=110/2;
 3/5=16,6=1,11=2,25=1,30=1,71=1,74=-60,116=2/1,2,3;
 4/5=5,16=3,69=1/1;
 5/5=2,38=5/2;
 8/6=4,10=1/1;
 9/15=2,16=-3/6;
 10/5=1/2;
 7/12=2/1,2,3,16;
 1/5=1,6=500,11=1,18=20/3(-8);
 2/9=110/2;
 6/7=2,8=2,9=2,10=2/1;
 99/9=10/99;
 -------------------
 Title Card Required
 -------------------
 Symbolic Z-matrix:
 Charge =  0 Multiplicity = 2
 C                     1.82012  -0.31904   1.0714 
 H                     1.85935   0.20496   2.02476 
 H                     1.30437  -1.26637   1.22208 
 C                     1.13258   0.51132   0.01626 
 C                    -2.56633  -0.66149  -0.12273 
 H                    -2.05265  -0.4721   -1.06523 
 H                    -2.96207  -1.6752   -0.11225 
 H                    -3.37337   0.05732   0.00942 
 O                    -1.66179  -0.60261   0.97203 
 O                    -1.16113   0.71122   1.04472 
 H                    -0.07385   0.64184   0.51383 
 H                     2.84865  -0.54153   0.76699 
 C                     1.62705   1.93177  -0.10086 
 H                     1.01553   2.51187  -0.79071 
 H                     1.62717   2.43324   0.86596 
 H                     2.65507   1.9433   -0.47927 
 C                     0.92713  -0.19976  -1.29828 
 H                     0.33508   0.39822  -1.98986 
 H                     1.89424  -0.39499  -1.77441 
 H                     0.43429  -1.16066  -1.15504 
 
 Add virtual bond connecting atoms H11        and O10        Dist= 2.29D+00.
 Add virtual bond connecting atoms H11        and C4         Dist= 2.48D+00.

 GradGradGradGradGradGradGradGradGradGradGradGradGradGradGradGradGradGrad
 Berny optimization.
 Initialization pass.
                           ----------------------------
                           !    Initial Parameters    !
                           ! (Angstroms and Degrees)  !
 --------------------------                            --------------------------
 ! Name  Definition              Value          Derivative Info.                !
 --------------------------------------------------------------------------------
 ! R1    R(1,2)                  1.0886         calculate D2E/DX2 analytically  !
 ! R2    R(1,3)                  1.0891         calculate D2E/DX2 analytically  !
 ! R3    R(1,4)                  1.5085         calculate D2E/DX2 analytically  !
 ! R4    R(1,12)                 1.0955         calculate D2E/DX2 analytically  !
 ! R5    R(4,11)                 1.3115         calculate D2E/DX2 analytically  !
 ! R6    R(4,13)                 1.5086         calculate D2E/DX2 analytically  !
 ! R7    R(4,17)                 1.5086         calculate D2E/DX2 analytically  !
 ! R8    R(5,6)                  1.09           calculate D2E/DX2 analytically  !
 ! R9    R(5,7)                  1.0883         calculate D2E/DX2 analytically  !
 ! R10   R(5,8)                  1.0888         calculate D2E/DX2 analytically  !
 ! R11   R(5,9)                  1.4213         calculate D2E/DX2 analytically  !
 ! R12   R(9,10)                 1.4079         calculate D2E/DX2 analytically  !
 ! R13   R(10,11)                1.212          calculate D2E/DX2 analytically  !
 ! R14   R(13,14)                1.0892         calculate D2E/DX2 analytically  !
 ! R15   R(13,15)                1.0891         calculate D2E/DX2 analytically  !
 ! R16   R(13,16)                1.0955         calculate D2E/DX2 analytically  !
 ! R17   R(17,18)                1.0892         calculate D2E/DX2 analytically  !
 ! R18   R(17,19)                1.0955         calculate D2E/DX2 analytically  !
 ! R19   R(17,20)                1.0894         calculate D2E/DX2 analytically  !
 ! A1    A(2,1,3)              108.3373         calculate D2E/DX2 analytically  !
 ! A2    A(2,1,4)              111.3483         calculate D2E/DX2 analytically  !
 ! A3    A(2,1,12)             107.8961         calculate D2E/DX2 analytically  !
 ! A4    A(3,1,4)              111.0842         calculate D2E/DX2 analytically  !
 ! A5    A(3,1,12)             107.8428         calculate D2E/DX2 analytically  !
 ! A6    A(4,1,12)             110.2034         calculate D2E/DX2 analytically  !
 ! A7    A(1,4,11)             102.0447         calculate D2E/DX2 analytically  !
 ! A8    A(1,4,13)             115.0376         calculate D2E/DX2 analytically  !
 ! A9    A(1,4,17)             114.3371         calculate D2E/DX2 analytically  !
 ! A10   A(11,4,13)            103.7246         calculate D2E/DX2 analytically  !
 ! A11   A(11,4,17)            104.6084         calculate D2E/DX2 analytically  !
 ! A12   A(13,4,17)            114.8847         calculate D2E/DX2 analytically  !
 ! A13   A(6,5,7)              109.9721         calculate D2E/DX2 analytically  !
 ! A14   A(6,5,8)              109.8498         calculate D2E/DX2 analytically  !
 ! A15   A(6,5,9)              111.0326         calculate D2E/DX2 analytically  !
 ! A16   A(7,5,8)              110.1365         calculate D2E/DX2 analytically  !
 ! A17   A(7,5,9)              105.2242         calculate D2E/DX2 analytically  !
 ! A18   A(8,5,9)              110.5413         calculate D2E/DX2 analytically  !
 ! A19   A(5,9,10)             107.7434         calculate D2E/DX2 analytically  !
 ! A20   A(9,10,11)            104.0636         calculate D2E/DX2 analytically  !
 ! A21   A(4,13,14)            111.5072         calculate D2E/DX2 analytically  !
 ! A22   A(4,13,15)            111.3851         calculate D2E/DX2 analytically  !
 ! A23   A(4,13,16)            110.1389         calculate D2E/DX2 analytically  !
 ! A24   A(14,13,15)           108.4858         calculate D2E/DX2 analytically  !
 ! A25   A(14,13,16)           107.6064         calculate D2E/DX2 analytically  !
 ! A26   A(15,13,16)           107.5585         calculate D2E/DX2 analytically  !
 ! A27   A(4,17,18)            111.6239         calculate D2E/DX2 analytically  !
 ! A28   A(4,17,19)            110.0284         calculate D2E/DX2 analytically  !
 ! A29   A(4,17,20)            111.2722         calculate D2E/DX2 analytically  !
 ! A30   A(18,17,19)           107.5619         calculate D2E/DX2 analytically  !
 ! A31   A(18,17,20)           108.7742         calculate D2E/DX2 analytically  !
 ! A32   A(19,17,20)           107.418          calculate D2E/DX2 analytically  !
 ! A33   L(4,11,10,6,-1)       182.0327         calculate D2E/DX2 analytically  !
 ! A34   L(4,11,10,6,-2)       175.8393         calculate D2E/DX2 analytically  !
 ! D1    D(2,1,4,11)           -62.3317         calculate D2E/DX2 analytically  !
 ! D2    D(2,1,4,13)            49.2252         calculate D2E/DX2 analytically  !
 ! D3    D(2,1,4,17)          -174.6374         calculate D2E/DX2 analytically  !
 ! D4    D(3,1,4,11)            58.5134         calculate D2E/DX2 analytically  !
 ! D5    D(3,1,4,13)           170.0702         calculate D2E/DX2 analytically  !
 ! D6    D(3,1,4,17)           -53.7923         calculate D2E/DX2 analytically  !
 ! D7    D(12,1,4,11)          177.9726         calculate D2E/DX2 analytically  !
 ! D8    D(12,1,4,13)          -70.4706         calculate D2E/DX2 analytically  !
 ! D9    D(12,1,4,17)           65.6668         calculate D2E/DX2 analytically  !
 ! D10   D(1,4,10,9)           -68.2712         calculate D2E/DX2 analytically  !
 ! D11   D(13,4,10,9)          172.3401         calculate D2E/DX2 analytically  !
 ! D12   D(17,4,10,9)           50.6378         calculate D2E/DX2 analytically  !
 ! D13   D(1,4,13,14)         -173.1428         calculate D2E/DX2 analytically  !
 ! D14   D(1,4,13,15)          -51.7899         calculate D2E/DX2 analytically  !
 ! D15   D(1,4,13,16)           67.4646         calculate D2E/DX2 analytically  !
 ! D16   D(11,4,13,14)         -62.5841         calculate D2E/DX2 analytically  !
 ! D17   D(11,4,13,15)          58.7689         calculate D2E/DX2 analytically  !
 ! D18   D(11,4,13,16)         178.0233         calculate D2E/DX2 analytically  !
 ! D19   D(17,4,13,14)          50.9618         calculate D2E/DX2 analytically  !
 ! D20   D(17,4,13,15)         172.3148         calculate D2E/DX2 analytically  !
 ! D21   D(17,4,13,16)         -68.4308         calculate D2E/DX2 analytically  !
 ! D22   D(1,4,17,18)          173.8881         calculate D2E/DX2 analytically  !
 ! D23   D(1,4,17,19)          -66.7728         calculate D2E/DX2 analytically  !
 ! D24   D(1,4,17,20)           52.1627         calculate D2E/DX2 analytically  !
 ! D25   D(11,4,17,18)          63.1214         calculate D2E/DX2 analytically  !
 ! D26   D(11,4,17,19)        -177.5395         calculate D2E/DX2 analytically  !
 ! D27   D(11,4,17,20)         -58.604          calculate D2E/DX2 analytically  !
 ! D28   D(13,4,17,18)         -49.9061         calculate D2E/DX2 analytically  !
 ! D29   D(13,4,17,19)          69.4329         calculate D2E/DX2 analytically  !
 ! D30   D(13,4,17,20)        -171.6316         calculate D2E/DX2 analytically  !
 ! D31   D(6,5,9,10)            63.6569         calculate D2E/DX2 analytically  !
 ! D32   D(7,5,9,10)          -177.4028         calculate D2E/DX2 analytically  !
 ! D33   D(8,5,9,10)           -58.5227         calculate D2E/DX2 analytically  !
 ! D34   D(5,9,10,11)          -99.7911         calculate D2E/DX2 analytically  !
 --------------------------------------------------------------------------------
 Trust Radius=3.00D-01 FncErr=1.00D-07 GrdErr=1.00D-07 EigMax=2.50D+02 EigMin=1.00D-04
 Number of steps in this run=    120 maximum allowed number of steps=    120.
 Search for a saddle point of order  1.
 GradGradGradGradGradGradGradGradGradGradGradGradGradGradGradGradGradGrad

                          Input orientation:                          
 ---------------------------------------------------------------------
 Center     Atomic      Atomic             Coordinates (Angstroms)
 Number     Number       Type             X           Y           Z
 ---------------------------------------------------------------------
      1          6           0        1.820119   -0.319040    1.071403
      2          1           0        1.859353    0.204962    2.024759
      3          1           0        1.304367   -1.266373    1.222077
      4          6           0        1.132582    0.511323    0.016264
      5          6           0       -2.566334   -0.661494   -0.122734
      6          1           0       -2.052651   -0.472096   -1.065233
      7          1           0       -2.962068   -1.675195   -0.112253
      8          1           0       -3.373368    0.057317    0.009415
      9          8           0       -1.661793   -0.602609    0.972025
     10          8           0       -1.161127    0.711217    1.044722
     11          1           0       -0.073850    0.641842    0.513830
     12          1           0        2.848650   -0.541526    0.766987
     13          6           0        1.627049    1.931772   -0.100864
     14          1           0        1.015528    2.511865   -0.790713
     15          1           0        1.627166    2.433237    0.865956
     16          1           0        2.655072    1.943300   -0.479273
     17          6           0        0.927128   -0.199762   -1.298284
     18          1           0        0.335083    0.398219   -1.989863
     19          1           0        1.894238   -0.394992   -1.774407
     20          1           0        0.434291   -1.160658   -1.155041
 ---------------------------------------------------------------------
                    Distance matrix (angstroms):
                    1          2          3          4          5
     1  C    0.000000
     2  H    1.088579   0.000000
     3  H    1.089102   1.765541   0.000000
     4  C    1.508485   2.157801   2.154924   0.000000
     5  C    4.558970   4.994915   4.142067   3.882885   0.000000
     6  H    4.425719   5.030928   4.139110   3.504634   1.089975
     7  H    5.109747   5.598921   4.488880   4.643655   1.088258
     8  H    5.314299   5.609348   5.010380   4.528770   1.088787
     9  O    3.494853   3.762830   3.049789   3.156399   1.421323
    10  O    3.154357   3.215597   3.165593   2.521663   2.285147
    11  H    2.195746   2.492197   2.458125   1.311520   2.883813
    12  H    1.095466   1.765770   1.765593   2.148713   5.488902
    13  C    2.545121   2.748474   3.475979   1.508606   4.930514
    14  H    3.482652   3.736405   4.290668   2.160343   4.831784
    15  H    2.766671   2.522290   3.730702   2.158783   5.304744
    16  H    2.867041   3.150423   3.875693   2.148043   5.845952
    17  C    2.535168   3.474976   2.762641   1.508605   3.714753
    18  H    3.477232   4.298597   3.745255   2.161792   3.609347
    19  H    2.847788   3.846404   3.175873   2.146632   4.764006
    20  H    2.754250   3.742572   2.533554   2.157565   3.212254
                    6          7          8          9         10
     6  H    0.000000
     7  H    1.784000   0.000000
     8  H    1.783098   1.784816   0.000000
     9  O    2.078515   2.004199   2.071620   0.000000
    10  O    2.578169   3.205767   2.528528   1.407867   0.000000
    11  H    2.765855   3.755322   3.388646   2.068856   1.211953
    12  H    5.233030   5.985208   6.296510   4.515514   4.210085
    13  C    4.499865   5.836980   5.341340   4.288433   3.252084
    14  H    4.288719   5.814899   5.091897   4.469367   3.368825
    15  H    5.070651   6.236760   5.602142   4.477149   3.282055
    16  H    5.323546   6.691821   6.335443   5.217590   4.289984
    17  C    3.001260   4.325438   4.502270   3.466857   3.268083
    18  H    2.704378   4.323849   4.226812   3.709710   3.397840
    19  H    4.010836   5.290121   5.579810   4.497927   4.301911
    20  H    2.582066   3.589904   4.163855   3.037992   3.299732
                   11         12         13         14         15
    11  H    0.000000
    12  H    3.163140   0.000000
    13  C    2.221447   2.891829   0.000000
    14  H    2.526967   3.887153   1.089200   0.000000
    15  H    2.495304   3.217302   1.089132   1.767720   0.000000
    16  H    3.182304   2.786574   1.095517   1.763056   1.762461
    17  C    2.234728   2.841548   2.543057   2.760138   3.479464
    18  H    2.548540   3.847254   2.754864   2.523582   3.737175
    19  H    3.191304   2.718650   2.878536   3.192116   3.878366
    20  H    2.508454   3.147482   3.478086   3.736040   4.292256
                   16         17         18         19         20
    16  H    0.000000
    17  C    2.872157   0.000000
    18  H    3.170411   1.089211   0.000000
    19  H    2.779182   1.095495   1.762546   0.000000
    20  H    3.875963   1.089370   1.771120   1.761052   0.000000
 Stoichiometry    C5H13O2(2)
 Framework group  C1[X(C5H13O2)]
 Deg. of freedom    54
 Full point group                 C1      NOp   1
 Largest Abelian subgroup         C1      NOp   1
 Largest concise Abelian subgroup C1      NOp   1
                         Standard orientation:                         
 ---------------------------------------------------------------------
 Center     Atomic      Atomic             Coordinates (Angstroms)
 Number     Number       Type             X           Y           Z
 ---------------------------------------------------------------------
      1          6           0       -1.482730   -0.706267    1.266618
      2          1           0       -1.594946   -1.766913    1.048804
      3          1           0       -0.690748   -0.590053    2.005131
      4          6           0       -1.179144    0.081892    0.016750
      5          6           0        2.673267    0.545261   -0.128220
      6          1           0        2.044225    1.398494   -0.381883
      7          1           0        3.359247    0.814247    0.672644
      8          1           0        3.230311    0.222601   -1.006313
      9          8           0        1.895648   -0.525524    0.390323
     10          8           0        1.025875   -0.957089   -0.629156
     11          1           0       -0.030996   -0.429841   -0.357376
     12          1           0       -2.416868   -0.354648    1.718055
     13          6           0       -2.092599   -0.196390   -1.151175
     14          1           0       -1.751917    0.309038   -2.053858
     15          1           0       -2.159642   -1.263715   -1.357407
     16          1           0       -3.104413    0.162151   -0.932454
     17          6           0       -0.884439    1.541557    0.258445
     18          1           0       -0.567842    2.043698   -0.654791
     19          1           0       -1.784030    2.050937    0.620906
     20          1           0       -0.110696    1.668591    1.014694
 ---------------------------------------------------------------------
 Rotational constants (GHZ):           3.5979430           1.3140024           1.2699261
 Standard basis: CC-pVTZ (5D, 7F)
 There are   440 symmetry adapted cartesian basis functions of A   symmetry.
 There are   392 symmetry adapted basis functions of A   symmetry.
   392 basis functions,   585 primitive gaussians,   440 cartesian basis functions
    30 alpha electrons       29 beta electrons
       nuclear repulsion energy       333.5172202293 Hartrees.
 NAtoms=   20 NActive=   20 NUniq=   20 SFac= 1.00D+00 NAtFMM=   60 NAOKFM=F Big=F
 Integral buffers will be    131072 words long.
 Raffenetti 2 integral format.
 Two-electron integral symmetry is turned on.
 Nuclear repulsion after empirical dispersion term =      333.5062217319 Hartrees.
 One-electron integrals computed using PRISM.
 NBasis=   392 RedAO= T EigKep=  6.42D-04  NBF=   392
 NBsUse=   392 1.00D-06 EigRej= -1.00D+00 NBFU=   392
 ExpMin= 1.03D-01 ExpMax= 1.53D+04 ExpMxC= 5.22D+02 IAcc=3 IRadAn=         5 AccDes= 0.00D+00
 Harris functional with IExCor=  419 and IRadAn=       5 diagonalized for initial guess.
 HarFok:  IExCor=  419 AccDes= 0.00D+00 IRadAn=         5 IDoV= 1 UseB2=F ITyADJ=14
 ICtDFT=  3500011 ScaDFX=  1.000000  1.000000  1.000000  1.000000
 FoFCou: FMM=F IPFlag=           0 FMFlag=      100000 FMFlg1=           0
         NFxFlg=           0 DoJE=T BraDBF=F KetDBF=T FulRan=T
         wScrn=  0.000000 ICntrl=       500 IOpCl=  0 I1Cent=   200000004 NGrid=           0
         NMat0=    1 NMatS0=      1 NMatT0=    0 NMatD0=    1 NMtDS0=    0 NMtDT0=    0
 Petite list used in FoFCou.
 Initial guess <Sx>= 0.0000 <Sy>= 0.0000 <Sz>= 0.5000 <S**2>= 0.7500 S= 0.5000
 Requested convergence on RMS density matrix=1.00D-08 within 128 cycles.
 Requested convergence on MAX density matrix=1.00D-06.
 Requested convergence on             energy=1.00D-06.
 No special actions if energy rises.
 Integral accuracy reduced to 1.0D-05 until final iterations.
 Initial convergence to 1.0D-05 achieved.  Increase integral accuracy.
 SCF Done:  E(UB2PLYPD3) =  -348.033343048     A.U. after   19 cycles
            NFock= 19  Conv=0.32D-08     -V/T= 2.0044
 <Sx>= 0.0000 <Sy>= 0.0000 <Sz>= 0.5000 <S**2>= 0.7685 S= 0.5092
 <L.S>=  0.00000000000    
 Annihilation of the first spin contaminant:
 S**2 before annihilation     0.7685,   after     0.7502
 DoSCS=T DFT=T ScalE2(SS,OS)=  0.270000  0.270000
 ExpMin= 1.03D-01 ExpMax= 1.53D+04 ExpMxC= 5.22D+02 IAcc=3 IRadAn=         5 AccDes= 0.00D+00
 HarFok:  IExCor=  205 AccDes= 0.00D+00 IRadAn=         5 IDoV=-2 UseB2=F ITyADJ=14
 ICtDFT= 12500011 ScaDFX=  1.000000  1.000000  1.000000  1.000000
 Range of M.O.s used for correlation:     8   392
 NBasis=   392 NAE=    30 NBE=    29 NFC=     7 NFV=     0
 NROrb=    385 NOA=    23 NOB=    22 NVA=   362 NVB=   363

 **** Warning!!: The largest alpha MO coefficient is  0.12000863D+02


 **** Warning!!: The largest beta MO coefficient is  0.12000797D+02

 DoSCS=T DFT=T ScalE2(SS,OS)=  0.270000  0.270000
 Disk-based method using ON**2 memory for 23 occupieds at a time.
 Permanent disk used for amplitudes=   169421973 words.
 Estimated scratch disk usage=  3366261632 words.
 Actual    scratch disk usage=  3255562112 words.
 JobTyp=2 Pass  1:  I=   8 to  30 NPSUse= 40 ParTrn=T ParDer=T DoDerP=T.
 (rs|ai) integrals will be sorted in core.
 Actual    scratch disk usage=  3255562112 words.
 JobTyp=3 Pass  1:  I=   8 to  29 NPSUse= 40 ParTrn=T ParDer=T DoDerP=T.
 (rs|ai) integrals will be sorted in core.
 Spin components of T(2) and E(2):
     alpha-alpha T2 =       0.7473016159D-01 E2=     -0.5396851913D-01
     alpha-beta  T2 =       0.4605476839D+00 E2=     -0.3439611129D+00
     beta-beta   T2 =       0.8139944633D-01 E2=     -0.5319992134D-01
 (S**2,0)=  0.76849D+00           (S**2,1)=  0.74267D+00
 Scaling Projection term by:   0.270000
 E(PUHF)=      -0.34803959449D+03        E(PMP2)=      -0.34848498754D+03
 E2(B2PLYPD3) =    -0.4511295534D+00 E(B2PLYPD3) =    -0.34848447260178D+03
 G2DrvN: will do    21 centers at a time, making    1 passes.
 Calling FoFCou, ICntrl=  3107 FMM=F I1Cent=   0 AccDes= 0.00D+00.
 End of G2Drv F.D. properties file   721 does not exist.
 End of G2Drv F.D. properties file   722 does not exist.
 End of G2Drv F.D. properties file   788 does not exist.
          IDoAtm=11111111111111111111
          Differentiating once with respect to electric field.
                with respect to dipole field.
          Differentiating once with respect to nuclear coordinates.
 CalDSu exits because no D1Ps are significant.
          There are    63 degrees of freedom in the 1st order CPHF.  IDoFFX=6 NUNeed=    63.
     60 vectors produced by pass  0 Test12= 3.39D-14 1.59D-09 XBig12= 9.46D+01 5.60D+00.
 AX will form    60 AO Fock derivatives at one time.
     60 vectors produced by pass  1 Test12= 3.39D-14 1.59D-09 XBig12= 6.63D+00 3.22D-01.
     60 vectors produced by pass  2 Test12= 3.39D-14 1.59D-09 XBig12= 3.91D-01 1.21D-01.
     60 vectors produced by pass  3 Test12= 3.39D-14 1.59D-09 XBig12= 6.17D-03 6.77D-03.
     60 vectors produced by pass  4 Test12= 3.39D-14 1.59D-09 XBig12= 6.44D-05 6.74D-04.
     60 vectors produced by pass  5 Test12= 3.39D-14 1.59D-09 XBig12= 8.62D-07 1.02D-04.
     60 vectors produced by pass  6 Test12= 3.39D-14 1.59D-09 XBig12= 7.41D-09 8.79D-06.
     25 vectors produced by pass  7 Test12= 3.39D-14 1.59D-09 XBig12= 4.95D-11 4.58D-07.
      3 vectors produced by pass  8 Test12= 3.39D-14 1.59D-09 XBig12= 3.08D-13 4.33D-08.
      2 vectors produced by pass  9 Test12= 3.39D-14 1.59D-09 XBig12= 2.32D-15 3.26D-09.
 InvSVY:  IOpt=1 It=  1 EMax= 4.44D-15
 Solved reduced A of dimension   450 with    63 vectors.
 End of Minotr F.D. properties file   721 does not exist.
 End of Minotr F.D. properties file   722 does not exist.
 End of Minotr F.D. properties file   788 does not exist.
 MDV= 10737418240.
 DoSCS=T DFT=T ScalE2(SS,OS)=  0.270000  0.270000
 Form MO integral derivatives with frozen-active canonical formalism.
 Discarding MO integrals.
 Reordered first order wavefunction length =    681858357
 In DefCFB: NBatch=  1 ICI= 30 ICA=363 LFMax= 73
            Large arrays: LIAPS= 14755319040 LIARS=  2347884000 words.
 In DefCFB: NBatch=  1 ICI= 30 ICA=363 LFMax= 73
            Large arrays: LIAPS= 14755319040 LIARS=  2347884000 words.
 Semi-Direct transformation.
 ModeAB=           4 MOrb=            30 LenV=   10732953835
 LASXX=    860785125 LTotXX=   860785125 LenRXX=  1733127225
 LTotAB=   872342100 MaxLAS=  1042806240 LenRXY=           0
 NonZer=  2593912350 LenScr=  3906126848 LnRSAI=  1042806240
 LnScr1=  1570343936 LExtra=           0 Total=   8252404249
 MaxDsk=          -1 SrtSym=           T ITran=            4
 JobTyp=1 Pass  1:  I=   1 to  30.
 (rs|ai) integrals will be sorted in core.
 ModeAB=           4 MOrb=            29 LenV=   10732953835
 LASXX=    833505211 LTotXX=   833505211 LenRXX=  1553741497
 LTotAB=   720236286 MaxLAS=  1008046032 LenRXY=           0
 NonZer=  2387246708 LenScr=  3594912768 LnRSAI=  1008046032
 LnScr1=  1517999104 LExtra=           0 Total=   7674699401
 MaxDsk=          -1 SrtSym=           T ITran=            4
 JobTyp=2 Pass  1:  I=   1 to  29.
 (rs|ai) integrals will be sorted in core.
 SymMOI:  orbitals are not symmetric.
 DoSCS=T DFT=T ScalE2(SS,OS)=  0.270000  0.270000
 Spin components of T(2) and E(2):
     alpha-alpha T2 =       0.7473016159D-01 E2=     -0.5396851913D-01
     alpha-beta  T2 =       0.4605476839D+00 E2=     -0.3439611129D+00
     beta-beta   T2 =       0.8139944633D-01 E2=     -0.5319992134D-01
 E2(B2PLYPD3) =    -0.4511295534D+00 E(B2PLYPD3) =    -0.34848447260178D+03
 (S**2,0)=  0.76849D+00           (S**2,1)=  0.74267D+00
 Scaling Projection term by:   0.270000
 E(PUHF)=      -0.34803959449D+03        E(PMP2)=      -0.34848498754D+03
          IDoAtm=11111111111111111111
          Differentiating once with respect to electric field.
                with respect to dipole field.
          Differentiating once with respect to nuclear coordinates.
          There are     1 degrees of freedom in the 1st order CPHF.  IDoFFX=0 NUNeed=     1.
 LinEq1:  Iter=  0 NonCon=     1 RMS=7.68D-04 Max=5.47D-02 NDo=     1
 AX will form     1 AO Fock derivatives at one time.
 LinEq1:  Iter=  1 NonCon=     1 RMS=2.55D-04 Max=9.48D-03 NDo=     1
 LinEq1:  Iter=  2 NonCon=     1 RMS=1.47D-04 Max=7.90D-03 NDo=     1
 LinEq1:  Iter=  3 NonCon=     1 RMS=6.29D-05 Max=1.37D-03 NDo=     1
 LinEq1:  Iter=  4 NonCon=     1 RMS=3.60D-05 Max=1.68D-03 NDo=     1
 LinEq1:  Iter=  5 NonCon=     1 RMS=2.56D-05 Max=9.13D-04 NDo=     1
 LinEq1:  Iter=  6 NonCon=     1 RMS=1.68D-05 Max=8.77D-04 NDo=     1
 LinEq1:  Iter=  7 NonCon=     1 RMS=5.13D-06 Max=1.01D-04 NDo=     1
 LinEq1:  Iter=  8 NonCon=     1 RMS=2.23D-06 Max=4.94D-05 NDo=     1
 LinEq1:  Iter=  9 NonCon=     1 RMS=9.49D-07 Max=1.80D-05 NDo=     1
 LinEq1:  Iter= 10 NonCon=     1 RMS=3.47D-07 Max=7.77D-06 NDo=     1
 LinEq1:  Iter= 11 NonCon=     1 RMS=1.44D-07 Max=3.19D-06 NDo=     1
 LinEq1:  Iter= 12 NonCon=     1 RMS=4.37D-08 Max=1.37D-06 NDo=     1
 LinEq1:  Iter= 13 NonCon=     1 RMS=1.54D-08 Max=6.37D-07 NDo=     1
 LinEq1:  Iter= 14 NonCon=     1 RMS=7.60D-09 Max=3.30D-07 NDo=     1
 LinEq1:  Iter= 15 NonCon=     1 RMS=3.38D-09 Max=1.27D-07 NDo=     1
 LinEq1:  Iter= 16 NonCon=     1 RMS=1.22D-09 Max=4.58D-08 NDo=     1
 LinEq1:  Iter= 17 NonCon=     1 RMS=4.20D-10 Max=1.45D-08 NDo=     1
 LinEq1:  Iter= 18 NonCon=     1 RMS=1.94D-10 Max=4.45D-09 NDo=     1
 LinEq1:  Iter= 19 NonCon=     1 RMS=7.64D-11 Max=1.84D-09 NDo=     1
 LinEq1:  Iter= 20 NonCon=     0 RMS=2.19D-11 Max=5.18D-10 NDo=     1
 Linear equations converged to 1.000D-10 1.000D-09 after    20 iterations.
 End of Minotr F.D. properties file   721 does not exist.
 End of Minotr F.D. properties file   722 does not exist.
 End of Minotr F.D. properties file   788 does not exist.
 Symmetrizing basis deriv contribution to polar:
 IMax=3 JMax=2 DiffMx= 0.00D+00
 G2DrvN: will do    21 centers at a time, making    1 passes.
 Calling FoFCou, ICntrl=  3107 FMM=F I1Cent=   0 AccDes= 0.00D+00.
 End of G2Drv F.D. properties file   721 does not exist.
 End of G2Drv F.D. properties file   722 does not exist.
 End of G2Drv F.D. properties file   788 does not exist.
 DoSCS=T DFT=T ScalE2(SS,OS)=  0.270000  0.270000
 R2 and R3 integrals will be kept in memory, NReq=  9455860260.
 DD1Dir will call FoFMem   1 times, MxPair=      2582
 NAB=   870 NAA=   435 NBB=   406.
 Discarding MO integrals.

 **********************************************************************

            Population analysis using the SCF Density.

 **********************************************************************

 Orbital symmetries:
 Alpha Orbitals:
       Occupied  (A) (A) (A) (A) (A) (A) (A) (A) (A) (A) (A) (A)
                 (A) (A) (A) (A) (A) (A) (A) (A) (A) (A) (A) (A)
                 (A) (A) (A) (A) (A) (A)
       Virtual   (A) (A) (A) (A) (A) (A) (A) (A) (A) (A) (A) (A)
                 (A) (A) (A) (A) (A) (A) (A) (A) (A) (A) (A) (A)
                 (A) (A) (A) (A) (A) (A) (A) (A) (A) (A) (A) (A)
                 (A) (A) (A) (A) (A) (A) (A) (A) (A) (A) (A) (A)
                 (A) (A) (A) (A) (A) (A) (A) (A) (A) (A) (A) (A)
                 (A) (A) (A) (A) (A) (A) (A) (A) (A) (A) (A) (A)
                 (A) (A) (A) (A) (A) (A) (A) (A) (A) (A) (A) (A)
                 (A) (A) (A) (A) (A) (A) (A) (A) (A) (A) (A) (A)
                 (A) (A) (A) (A) (A) (A) (A) (A) (A) (A) (A) (A)
                 (A) (A) (A) (A) (A) (A) (A) (A) (A) (A) (A) (A)
                 (A) (A) (A) (A) (A) (A) (A) (A) (A) (A) (A) (A)
                 (A) (A) (A) (A) (A) (A) (A) (A) (A) (A) (A) (A)
                 (A) (A) (A) (A) (A) (A) (A) (A) (A) (A) (A) (A)
                 (A) (A) (A) (A) (A) (A) (A) (A) (A) (A) (A) (A)
                 (A) (A) (A) (A) (A) (A) (A) (A) (A) (A) (A) (A)
                 (A) (A) (A) (A) (A) (A) (A) (A) (A) (A) (A) (A)
                 (A) (A) (A) (A) (A) (A) (A) (A) (A) (A) (A) (A)
                 (A) (A) (A) (A) (A) (A) (A) (A) (A) (A) (A) (A)
                 (A) (A) (A) (A) (A) (A) (A) (A) (A) (A) (A) (A)
                 (A) (A) (A) (A) (A) (A) (A) (A) (A) (A) (A) (A)
                 (A) (A) (A) (A) (A) (A) (A) (A) (A) (A) (A) (A)
                 (A) (A) (A) (A) (A) (A) (A) (A) (A) (A) (A) (A)
                 (A) (A) (A) (A) (A) (A) (A) (A) (A) (A) (A) (A)
                 (A) (A) (A) (A) (A) (A) (A) (A) (A) (A) (A) (A)
                 (A) (A) (A) (A) (A) (A) (A) (A) (A) (A) (A) (A)
                 (A) (A) (A) (A) (A) (A) (A) (A) (A) (A) (A) (A)
                 (A) (A) (A) (A) (A) (A) (A) (A) (A) (A) (A) (A)
                 (A) (A) (A) (A) (A) (A) (A) (A) (A) (A) (A) (A)
                 (A) (A) (A) (A) (A) (A) (A) (A) (A) (A) (A) (A)
                 (A) (A) (A) (A) (A) (A) (A) (A) (A) (A) (A) (A)
                 (A) (A)
 Beta  Orbitals:
       Occupied  (A) (A) (A) (A) (A) (A) (A) (A) (A) (A) (A) (A)
                 (A) (A) (A) (A) (A) (A) (A) (A) (A) (A) (A) (A)
                 (A) (A) (A) (A) (A)
       Virtual   (A) (A) (A) (A) (A) (A) (A) (A) (A) (A) (A) (A)
                 (A) (A) (A) (A) (A) (A) (A) (A) (A) (A) (A) (A)
                 (A) (A) (A) (A) (A) (A) (A) (A) (A) (A) (A) (A)
                 (A) (A) (A) (A) (A) (A) (A) (A) (A) (A) (A) (A)
                 (A) (A) (A) (A) (A) (A) (A) (A) (A) (A) (A) (A)
                 (A) (A) (A) (A) (A) (A) (A) (A) (A) (A) (A) (A)
                 (A) (A) (A) (A) (A) (A) (A) (A) (A) (A) (A) (A)
                 (A) (A) (A) (A) (A) (A) (A) (A) (A) (A) (A) (A)
                 (A) (A) (A) (A) (A) (A) (A) (A) (A) (A) (A) (A)
                 (A) (A) (A) (A) (A) (A) (A) (A) (A) (A) (A) (A)
                 (A) (A) (A) (A) (A) (A) (A) (A) (A) (A) (A) (A)
                 (A) (A) (A) (A) (A) (A) (A) (A) (A) (A) (A) (A)
                 (A) (A) (A) (A) (A) (A) (A) (A) (A) (A) (A) (A)
                 (A) (A) (A) (A) (A) (A) (A) (A) (A) (A) (A) (A)
                 (A) (A) (A) (A) (A) (A) (A) (A) (A) (A) (A) (A)
                 (A) (A) (A) (A) (A) (A) (A) (A) (A) (A) (A) (A)
                 (A) (A) (A) (A) (A) (A) (A) (A) (A) (A) (A) (A)
                 (A) (A) (A) (A) (A) (A) (A) (A) (A) (A) (A) (A)
                 (A) (A) (A) (A) (A) (A) (A) (A) (A) (A) (A) (A)
                 (A) (A) (A) (A) (A) (A) (A) (A) (A) (A) (A) (A)
                 (A) (A) (A) (A) (A) (A) (A) (A) (A) (A) (A) (A)
                 (A) (A) (A) (A) (A) (A) (A) (A) (A) (A) (A) (A)
                 (A) (A) (A) (A) (A) (A) (A) (A) (A) (A) (A) (A)
                 (A) (A) (A) (A) (A) (A) (A) (A) (A) (A) (A) (A)
                 (A) (A) (A) (A) (A) (A) (A) (A) (A) (A) (A) (A)
                 (A) (A) (A) (A) (A) (A) (A) (A) (A) (A) (A) (A)
                 (A) (A) (A) (A) (A) (A) (A) (A) (A) (A) (A) (A)
                 (A) (A) (A) (A) (A) (A) (A) (A) (A) (A) (A) (A)
                 (A) (A) (A) (A) (A) (A) (A) (A) (A) (A) (A) (A)
                 (A) (A) (A) (A) (A) (A) (A) (A) (A) (A) (A) (A)
                 (A) (A) (A)
 The electronic state is 2-A.
 Alpha  occ. eigenvalues --  -19.78265 -19.77987 -10.65730 -10.64251 -10.61123
 Alpha  occ. eigenvalues --  -10.60998 -10.60559  -1.26845  -1.01432  -0.94051
 Alpha  occ. eigenvalues --   -0.80420  -0.80097  -0.77252  -0.66389  -0.59593
 Alpha  occ. eigenvalues --   -0.55422  -0.54122  -0.53037  -0.51684  -0.51547
 Alpha  occ. eigenvalues --   -0.48128  -0.46206  -0.45888  -0.43851  -0.43697
 Alpha  occ. eigenvalues --   -0.40827  -0.40776  -0.36607  -0.35392  -0.28449
 Alpha virt. eigenvalues --    0.07061   0.09677   0.11293   0.12202   0.13230
 Alpha virt. eigenvalues --    0.13635   0.14179   0.14849   0.16264   0.16979
 Alpha virt. eigenvalues --    0.18335   0.18717   0.19420   0.20471   0.21199
 Alpha virt. eigenvalues --    0.23991   0.24193   0.26803   0.29691   0.31325
 Alpha virt. eigenvalues --    0.33005   0.34167   0.36663   0.36914   0.38053
 Alpha virt. eigenvalues --    0.40584   0.41248   0.44397   0.44800   0.45542
 Alpha virt. eigenvalues --    0.48656   0.49709   0.50096   0.50913   0.51350
 Alpha virt. eigenvalues --    0.52142   0.52651   0.53373   0.54210   0.54630
 Alpha virt. eigenvalues --    0.55415   0.56138   0.56620   0.57394   0.58623
 Alpha virt. eigenvalues --    0.59377   0.59997   0.64113   0.65452   0.66814
 Alpha virt. eigenvalues --    0.69642   0.72291   0.74540   0.76096   0.77586
 Alpha virt. eigenvalues --    0.80244   0.80529   0.83453   0.84698   0.86039
 Alpha virt. eigenvalues --    0.88769   0.90396   0.92321   0.94695   0.95618
 Alpha virt. eigenvalues --    0.96141   0.96352   0.97534   1.00130   1.01874
 Alpha virt. eigenvalues --    1.03584   1.04179   1.04583   1.05314   1.07885
 Alpha virt. eigenvalues --    1.09431   1.10569   1.11871   1.14217   1.16448
 Alpha virt. eigenvalues --    1.17585   1.18822   1.19249   1.19364   1.20394
 Alpha virt. eigenvalues --    1.22736   1.24275   1.24675   1.28702   1.29577
 Alpha virt. eigenvalues --    1.30440   1.31543   1.32856   1.34519   1.35395
 Alpha virt. eigenvalues --    1.36611   1.38147   1.38392   1.38765   1.39119
 Alpha virt. eigenvalues --    1.40456   1.41199   1.42653   1.43332   1.45270
 Alpha virt. eigenvalues --    1.45440   1.47307   1.48488   1.49880   1.53741
 Alpha virt. eigenvalues --    1.55481   1.58806   1.59249   1.61216   1.63199
 Alpha virt. eigenvalues --    1.63634   1.64769   1.65824   1.68392   1.71412
 Alpha virt. eigenvalues --    1.78555   1.79281   1.81055   1.82840   1.94314
 Alpha virt. eigenvalues --    1.94460   2.00494   2.04506   2.14598   2.21812
 Alpha virt. eigenvalues --    2.23525   2.28325   2.32082   2.35318   2.37731
 Alpha virt. eigenvalues --    2.39360   2.41397   2.45346   2.46444   2.49315
 Alpha virt. eigenvalues --    2.50514   2.51530   2.53839   2.56336   2.59481
 Alpha virt. eigenvalues --    2.64934   2.68866   2.70609   2.71412   2.72173
 Alpha virt. eigenvalues --    2.72780   2.73071   2.74532   2.76745   2.77708
 Alpha virt. eigenvalues --    2.86683   2.87828   2.88796   2.90617   2.90917
 Alpha virt. eigenvalues --    2.91943   2.93182   2.94056   2.94233   2.95014
 Alpha virt. eigenvalues --    2.95689   2.98667   3.02386   3.03369   3.04308
 Alpha virt. eigenvalues --    3.05543   3.08620   3.09636   3.10199   3.11148
 Alpha virt. eigenvalues --    3.13514   3.15059   3.15917   3.16490   3.17088
 Alpha virt. eigenvalues --    3.17310   3.17636   3.19363   3.20093   3.21392
 Alpha virt. eigenvalues --    3.21455   3.22198   3.24739   3.24959   3.25957
 Alpha virt. eigenvalues --    3.29022   3.30803   3.31398   3.41456   3.42186
 Alpha virt. eigenvalues --    3.42710   3.43254   3.45593   3.46808   3.47700
 Alpha virt. eigenvalues --    3.47921   3.48335   3.49488   3.50983   3.51872
 Alpha virt. eigenvalues --    3.53541   3.55571   3.56778   3.57012   3.57529
 Alpha virt. eigenvalues --    3.58884   3.60469   3.60835   3.61048   3.62015
 Alpha virt. eigenvalues --    3.62846   3.67573   3.71500   3.72152   3.73245
 Alpha virt. eigenvalues --    3.74119   3.80409   3.82464   3.83162   3.84757
 Alpha virt. eigenvalues --    3.87557   3.88240   3.89119   3.90174   3.90778
 Alpha virt. eigenvalues --    3.92242   3.93880   3.95748   3.96486   3.98475
 Alpha virt. eigenvalues --    3.98888   4.00547   4.02287   4.04140   4.06627
 Alpha virt. eigenvalues --    4.08277   4.08972   4.09460   4.10632   4.11430
 Alpha virt. eigenvalues --    4.12786   4.16536   4.17957   4.19324   4.19809
 Alpha virt. eigenvalues --    4.21376   4.22923   4.25731   4.26075   4.27004
 Alpha virt. eigenvalues --    4.31052   4.31700   4.32093   4.32945   4.34112
 Alpha virt. eigenvalues --    4.35105   4.36911   4.37242   4.38064   4.40962
 Alpha virt. eigenvalues --    4.42870   4.46331   4.47132   4.47893   4.51362
 Alpha virt. eigenvalues --    4.52535   4.53611   4.57656   4.57857   4.61313
 Alpha virt. eigenvalues --    4.63437   4.65387   4.68542   4.70131   4.71489
 Alpha virt. eigenvalues --    4.73444   4.82211   4.82392   4.84376   4.89233
 Alpha virt. eigenvalues --    4.93730   4.95597   4.95921   4.96958   4.98111
 Alpha virt. eigenvalues --    5.00453   5.01316   5.03807   5.05035   5.06907
 Alpha virt. eigenvalues --    5.12511   5.13021   5.16570   5.22982   5.23804
 Alpha virt. eigenvalues --    5.25989   5.26959   5.28686   5.29178   5.31026
 Alpha virt. eigenvalues --    5.32260   5.33837   5.34959   5.36859   5.37664
 Alpha virt. eigenvalues --    5.38100   5.39288   5.41396   5.44612   5.44736
 Alpha virt. eigenvalues --    5.45581   5.47799   5.49729   5.52305   5.52581
 Alpha virt. eigenvalues --    5.54335   5.55596   5.56438   5.60172   5.65565
 Alpha virt. eigenvalues --    5.71642   5.73421   5.75143   5.83117   5.93913
 Alpha virt. eigenvalues --    5.96100   6.00682   6.05499   6.06677   6.08248
 Alpha virt. eigenvalues --    6.10026   6.12170   6.12398   6.13499   6.24505
 Alpha virt. eigenvalues --    6.29128   6.38521   6.41077   6.65170   6.75098
 Alpha virt. eigenvalues --    6.76169   6.83758   6.96475   7.04746   7.08438
 Alpha virt. eigenvalues --    7.18926   7.43834   7.53035   7.57429   7.74296
 Alpha virt. eigenvalues --    9.93094  10.53842  10.78991  13.43103  13.97690
 Alpha virt. eigenvalues --   14.07073  14.12279
  Beta  occ. eigenvalues --  -19.78117 -19.76205 -10.65739 -10.63096 -10.61171
  Beta  occ. eigenvalues --  -10.61043 -10.60608  -1.24845  -0.98281  -0.92234
  Beta  occ. eigenvalues --   -0.80255  -0.79936  -0.76829  -0.63207  -0.56943
  Beta  occ. eigenvalues --   -0.54328  -0.53754  -0.51557  -0.51321  -0.51170
  Beta  occ. eigenvalues --   -0.45686  -0.45512  -0.44073  -0.43762  -0.42577
  Beta  occ. eigenvalues --   -0.40465  -0.40417  -0.34880  -0.32300
  Beta virt. eigenvalues --   -0.03649   0.07161   0.09743   0.11547   0.12269
  Beta virt. eigenvalues --    0.13528   0.13851   0.14276   0.15183   0.16363
  Beta virt. eigenvalues --    0.17153   0.18534   0.18976   0.19637   0.20963
  Beta virt. eigenvalues --    0.21287   0.24241   0.24466   0.27299   0.29878
  Beta virt. eigenvalues --    0.31449   0.33349   0.34508   0.37024   0.37657
  Beta virt. eigenvalues --    0.38799   0.40831   0.41666   0.44735   0.45362
  Beta virt. eigenvalues --    0.46216   0.48918   0.49835   0.50181   0.51148
  Beta virt. eigenvalues --    0.51449   0.52344   0.52893   0.53435   0.54673
  Beta virt. eigenvalues --    0.54796   0.55857   0.56376   0.57005   0.59131
  Beta virt. eigenvalues --    0.59815   0.60268   0.60679   0.64448   0.65766
  Beta virt. eigenvalues --    0.66981   0.69995   0.72559   0.74812   0.76515
  Beta virt. eigenvalues --    0.77826   0.80401   0.80828   0.83817   0.85190
  Beta virt. eigenvalues --    0.86164   0.88891   0.90736   0.92499   0.95104
  Beta virt. eigenvalues --    0.95809   0.96271   0.96485   0.97640   1.00335
  Beta virt. eigenvalues --    1.02200   1.03703   1.04345   1.04733   1.05449
  Beta virt. eigenvalues --    1.07978   1.09607   1.10828   1.11993   1.14431
  Beta virt. eigenvalues --    1.16852   1.17867   1.19307   1.19468   1.19895
  Beta virt. eigenvalues --    1.20542   1.23053   1.24526   1.24981   1.29097
  Beta virt. eigenvalues --    1.29844   1.30713   1.31996   1.33295   1.34766
  Beta virt. eigenvalues --    1.35661   1.36724   1.38331   1.38647   1.39015
  Beta virt. eigenvalues --    1.39280   1.40531   1.41607   1.43016   1.43694
  Beta virt. eigenvalues --    1.45511   1.45765   1.47524   1.48617   1.49978
  Beta virt. eigenvalues --    1.54181   1.55596   1.59074   1.59248   1.61529
  Beta virt. eigenvalues --    1.63357   1.63838   1.65285   1.66450   1.68764
  Beta virt. eigenvalues --    1.72776   1.78974   1.79837   1.81545   1.83179
  Beta virt. eigenvalues --    1.95401   1.96464   2.01108   2.05408   2.14899
  Beta virt. eigenvalues --    2.23006   2.24634   2.29212   2.32346   2.35579
  Beta virt. eigenvalues --    2.37829   2.39493   2.42260   2.45912   2.47068
  Beta virt. eigenvalues --    2.49629   2.51071   2.52353   2.54508   2.56671
  Beta virt. eigenvalues --    2.60203   2.65277   2.69126   2.71145   2.71492
  Beta virt. eigenvalues --    2.72687   2.73252   2.73509   2.75012   2.76950
  Beta virt. eigenvalues --    2.77928   2.86766   2.87772   2.89125   2.90687
  Beta virt. eigenvalues --    2.91040   2.92006   2.93263   2.94125   2.94529
  Beta virt. eigenvalues --    2.95414   2.95901   2.99489   3.02659   3.03539
  Beta virt. eigenvalues --    3.04652   3.05667   3.08678   3.10012   3.10528
  Beta virt. eigenvalues --    3.11469   3.13594   3.15162   3.16062   3.16622
  Beta virt. eigenvalues --    3.17344   3.17437   3.17678   3.20004   3.20410
  Beta virt. eigenvalues --    3.21521   3.21646   3.22285   3.24867   3.25203
  Beta virt. eigenvalues --    3.25954   3.29181   3.31102   3.31733   3.41647
  Beta virt. eigenvalues --    3.42537   3.43415   3.43856   3.46231   3.47284
  Beta virt. eigenvalues --    3.48112   3.48286   3.48477   3.49874   3.51358
  Beta virt. eigenvalues --    3.51951   3.53631   3.55871   3.57027   3.57235
  Beta virt. eigenvalues --    3.57687   3.59003   3.60579   3.61015   3.61165
  Beta virt. eigenvalues --    3.62295   3.63154   3.68030   3.71571   3.73155
  Beta virt. eigenvalues --    3.73469   3.75022   3.80995   3.82871   3.83482
  Beta virt. eigenvalues --    3.85063   3.88035   3.88459   3.89655   3.90438
  Beta virt. eigenvalues --    3.91046   3.92447   3.94235   3.95974   3.96645
  Beta virt. eigenvalues --    3.98622   3.98849   4.00716   4.02641   4.04222
  Beta virt. eigenvalues --    4.07027   4.08847   4.09313   4.09715   4.10849
  Beta virt. eigenvalues --    4.11619   4.13010   4.16730   4.18140   4.19410
  Beta virt. eigenvalues --    4.19950   4.21551   4.23220   4.26022   4.26383
  Beta virt. eigenvalues --    4.27387   4.31264   4.31989   4.32414   4.33278
  Beta virt. eigenvalues --    4.34443   4.35266   4.37127   4.37325   4.38271
  Beta virt. eigenvalues --    4.41954   4.43159   4.46552   4.47544   4.48218
  Beta virt. eigenvalues --    4.51837   4.52868   4.54048   4.57976   4.58226
  Beta virt. eigenvalues --    4.61472   4.63674   4.66187   4.69206   4.70734
  Beta virt. eigenvalues --    4.72175   4.74044   4.82355   4.82671   4.84505
  Beta virt. eigenvalues --    4.89951   4.93890   4.95746   4.96091   4.97277
  Beta virt. eigenvalues --    4.98408   5.00890   5.01525   5.04046   5.05197
  Beta virt. eigenvalues --    5.07136   5.12696   5.13164   5.17707   5.23204
  Beta virt. eigenvalues --    5.24006   5.26261   5.27147   5.28955   5.29441
  Beta virt. eigenvalues --    5.31478   5.32472   5.34160   5.35224   5.37236
  Beta virt. eigenvalues --    5.38005   5.38399   5.39793   5.41756   5.44808
  Beta virt. eigenvalues --    5.44945   5.45851   5.48101   5.49915   5.52467
  Beta virt. eigenvalues --    5.52766   5.54696   5.55812   5.56675   5.60305
  Beta virt. eigenvalues --    5.66211   5.72037   5.74057   5.76602   5.83783
  Beta virt. eigenvalues --    5.93968   5.96757   6.01475   6.05964   6.06726
  Beta virt. eigenvalues --    6.08376   6.10289   6.12368   6.12978   6.13879
  Beta virt. eigenvalues --    6.25565   6.30748   6.39253   6.42112   6.66164
  Beta virt. eigenvalues --    6.77564   6.78849   6.85157   6.98623   7.06736
  Beta virt. eigenvalues --    7.09377   7.21305   7.43998   7.55225   7.59102
  Beta virt. eigenvalues --    7.75143   9.94329  10.54784  10.79929  13.43103
  Beta virt. eigenvalues --   13.97839  14.07093  14.12303
          Condensed to atoms (all electrons):
               1          2          3          4          5          6
     1  C    4.867882   0.413191   0.410075   0.331931   0.000007   0.000154
     2  H    0.413191   0.568527  -0.024189  -0.035747   0.000045  -0.000005
     3  H    0.410075  -0.024189   0.563689  -0.034347  -0.000314  -0.000160
     4  C    0.331931  -0.035747  -0.034347   5.170283  -0.002784   0.001318
     5  C    0.000007   0.000045  -0.000314  -0.002784   4.601646   0.386233
     6  H    0.000154  -0.000005  -0.000160   0.001318   0.386233   0.698750
     7  H    0.000004  -0.000007   0.000009   0.000316   0.396728  -0.035843
     8  H   -0.000066  -0.000006   0.000102  -0.000199   0.414130  -0.060154
     9  O   -0.004784  -0.000348   0.007076   0.004430   0.306994  -0.052335
    10  O    0.005182   0.002398  -0.002115  -0.084800  -0.045705  -0.000465
    11  H   -0.015178  -0.003929  -0.002768   0.256214   0.001888   0.003488
    12  H    0.393074  -0.031875  -0.033589  -0.035643  -0.000009  -0.000001
    13  C   -0.049975  -0.004437   0.007134   0.336648   0.000070  -0.000173
    14  H    0.007253   0.000004  -0.000297  -0.037664   0.000015   0.000044
    15  H   -0.004813   0.003241   0.000008  -0.037106   0.000027  -0.000014
    16  H   -0.003789  -0.000581  -0.000305  -0.037675  -0.000005   0.000020
    17  C   -0.053774   0.007224  -0.005974   0.321981  -0.001021  -0.003109
    18  H    0.007170  -0.000367   0.000095  -0.040059  -0.000557  -0.000133
    19  H   -0.003409  -0.000321  -0.000521  -0.033628   0.000014   0.000107
    20  H   -0.004724   0.000025   0.003176  -0.040505  -0.001104  -0.004992
               7          8          9         10         11         12
     1  C    0.000004  -0.000066  -0.004784   0.005182  -0.015178   0.393074
     2  H   -0.000007  -0.000006  -0.000348   0.002398  -0.003929  -0.031875
     3  H    0.000009   0.000102   0.007076  -0.002115  -0.002768  -0.033589
     4  C    0.000316  -0.000199   0.004430  -0.084800   0.256214  -0.035643
     5  C    0.396728   0.414130   0.306994  -0.045705   0.001888  -0.000009
     6  H   -0.035843  -0.060154  -0.052335  -0.000465   0.003488  -0.000001
     7  H    0.594263  -0.029861  -0.026072   0.006827  -0.000449  -0.000004
     8  H   -0.029861   0.618837  -0.039047   0.003668   0.000732  -0.000001
     9  O   -0.026072  -0.039047   7.947921   0.069950  -0.025491  -0.000038
    10  O    0.006827   0.003668   0.069950   8.101167   0.173180  -0.000007
    11  H   -0.000449   0.000732  -0.025491   0.173180   0.439238   0.003698
    12  H   -0.000004  -0.000001  -0.000038  -0.000007   0.003698   0.613057
    13  C   -0.000007   0.000065   0.000285   0.000192  -0.013140  -0.004408
    14  H    0.000004   0.000003  -0.000069   0.001372  -0.002642  -0.000401
    15  H   -0.000002   0.000001  -0.000034   0.001475  -0.003263  -0.000400
    16  H    0.000000  -0.000000  -0.000013  -0.000298   0.004025   0.003945
    17  C   -0.000055  -0.000074   0.001258   0.000719  -0.019606  -0.003357
    18  H    0.000079   0.000033  -0.000127   0.001210  -0.002185  -0.000369
    19  H    0.000005  -0.000006   0.000005  -0.000181   0.002922   0.004713
    20  H   -0.000062   0.000433   0.004805  -0.000631  -0.003894  -0.000602
              13         14         15         16         17         18
     1  C   -0.049975   0.007253  -0.004813  -0.003789  -0.053774   0.007170
     2  H   -0.004437   0.000004   0.003241  -0.000581   0.007224  -0.000367
     3  H    0.007134  -0.000297   0.000008  -0.000305  -0.005974   0.000095
     4  C    0.336648  -0.037664  -0.037106  -0.037675   0.321981  -0.040059
     5  C    0.000070   0.000015   0.000027  -0.000005  -0.001021  -0.000557
     6  H   -0.000173   0.000044  -0.000014   0.000020  -0.003109  -0.000133
     7  H   -0.000007   0.000004  -0.000002   0.000000  -0.000055   0.000079
     8  H    0.000065   0.000003   0.000001  -0.000000  -0.000074   0.000033
     9  O    0.000285  -0.000069  -0.000034  -0.000013   0.001258  -0.000127
    10  O    0.000192   0.001372   0.001475  -0.000298   0.000719   0.001210
    11  H   -0.013140  -0.002642  -0.003263   0.004025  -0.019606  -0.002185
    12  H   -0.004408  -0.000401  -0.000400   0.003945  -0.003357  -0.000369
    13  C    4.856250   0.413841   0.414181   0.398031  -0.051982  -0.004549
    14  H    0.413841   0.574306  -0.026132  -0.032155  -0.005606   0.003272
    15  H    0.414181  -0.026132   0.567714  -0.031977   0.007285   0.000008
    16  H    0.398031  -0.032155  -0.031977   0.605561  -0.004623  -0.000615
    17  C   -0.051982  -0.005606   0.007285  -0.004623   4.910643   0.413035
    18  H   -0.004549   0.003272   0.000008  -0.000615   0.413035   0.576992
    19  H   -0.003615  -0.000451  -0.000396   0.004738   0.394498  -0.029883
    20  H    0.007137   0.000005  -0.000310  -0.000404   0.416358  -0.029583
              19         20
     1  C   -0.003409  -0.004724
     2  H   -0.000321   0.000025
     3  H   -0.000521   0.003176
     4  C   -0.033628  -0.040505
     5  C    0.000014  -0.001104
     6  H    0.000107  -0.004992
     7  H    0.000005  -0.000062
     8  H   -0.000006   0.000433
     9  O    0.000005   0.004805
    10  O   -0.000181  -0.000631
    11  H    0.002922  -0.003894
    12  H    0.004713  -0.000602
    13  C   -0.003615   0.007137
    14  H   -0.000451   0.000005
    15  H   -0.000396  -0.000310
    16  H    0.004738  -0.000404
    17  C    0.394498   0.416358
    18  H   -0.029883  -0.029583
    19  H    0.593122  -0.030192
    20  H   -0.030192   0.570998
          Atomic-Atomic Spin Densities.
               1          2          3          4          5          6
     1  C   -0.017939   0.004425   0.005105  -0.025590  -0.000112   0.000269
     2  H    0.004425   0.004502   0.000471  -0.004255  -0.000009   0.000019
     3  H    0.005105   0.000471   0.004523  -0.004441  -0.000059   0.000100
     4  C   -0.025590  -0.004255  -0.004441   0.641017   0.001407  -0.004014
     5  C   -0.000112  -0.000009  -0.000059   0.001407  -0.005605   0.001846
     6  H    0.000269   0.000019   0.000100  -0.004014   0.001846   0.004956
     7  H   -0.000013  -0.000000  -0.000012   0.000111   0.000885  -0.001132
     8  H   -0.000051  -0.000005  -0.000020   0.000876  -0.002013  -0.001859
     9  O   -0.001795  -0.000143  -0.000718   0.012562   0.002945  -0.001493
    10  O    0.008459   0.001005   0.001051  -0.090550  -0.003349   0.003592
    11  H   -0.006814  -0.000708   0.000118   0.085973   0.001242  -0.003219
    12  H   -0.002597  -0.003733  -0.003052  -0.009692   0.000020  -0.000043
    13  C    0.005628   0.000989   0.000079  -0.017991  -0.000053   0.000195
    14  H    0.000297   0.000085   0.000018  -0.003745  -0.000013   0.000071
    15  H    0.001211   0.000418   0.000050  -0.004045  -0.000005   0.000020
    16  H   -0.001958  -0.000654  -0.000149  -0.012253   0.000009  -0.000039
    17  C    0.007815   0.000247   0.001144  -0.020764  -0.000562   0.001799
    18  H    0.000344   0.000030   0.000044  -0.003732  -0.000200   0.000786
    19  H   -0.002483  -0.000216  -0.000446  -0.010862   0.000127  -0.000424
    20  H    0.001076   0.000029   0.000077  -0.003525  -0.000490   0.000994
               7          8          9         10         11         12
     1  C   -0.000013  -0.000051  -0.001795   0.008459  -0.006814  -0.002597
     2  H   -0.000000  -0.000005  -0.000143   0.001005  -0.000708  -0.003733
     3  H   -0.000012  -0.000020  -0.000718   0.001051   0.000118  -0.003052
     4  C    0.000111   0.000876   0.012562  -0.090550   0.085973  -0.009692
     5  C    0.000885  -0.002013   0.002945  -0.003349   0.001242   0.000020
     6  H   -0.001132  -0.001859  -0.001493   0.003592  -0.003219  -0.000043
     7  H   -0.002076   0.001141   0.000146  -0.000216   0.000098   0.000002
     8  H    0.001141   0.003392  -0.000745   0.000399   0.001170   0.000004
     9  O    0.000146  -0.000745   0.050368  -0.044201   0.010835   0.000172
    10  O   -0.000216   0.000399  -0.044201   0.639204  -0.067359  -0.000814
    11  H    0.000098   0.001170   0.010835  -0.067359  -0.082911   0.000942
    12  H    0.000002   0.000004   0.000172  -0.000814   0.000942   0.051131
    13  C   -0.000003  -0.000039  -0.000296   0.005243  -0.002368  -0.001363
    14  H   -0.000001  -0.000017  -0.000042   0.000869  -0.000812  -0.000224
    15  H   -0.000000  -0.000006  -0.000036   0.000850  -0.000535  -0.000621
    16  H    0.000000   0.000004   0.000035  -0.000646   0.000910   0.003893
    17  C   -0.000033  -0.000170  -0.002092   0.006527  -0.004560  -0.002190
    18  H   -0.000019  -0.000081  -0.000243   0.000985  -0.000642  -0.000225
    19  H    0.000007   0.000022   0.000217  -0.000748   0.000862   0.004127
    20  H   -0.000023  -0.000085  -0.000826   0.000768   0.000511  -0.000383
              13         14         15         16         17         18
     1  C    0.005628   0.000297   0.001211  -0.001958   0.007815   0.000344
     2  H    0.000989   0.000085   0.000418  -0.000654   0.000247   0.000030
     3  H    0.000079   0.000018   0.000050  -0.000149   0.001144   0.000044
     4  C   -0.017991  -0.003745  -0.004045  -0.012253  -0.020764  -0.003732
     5  C   -0.000053  -0.000013  -0.000005   0.000009  -0.000562  -0.000200
     6  H    0.000195   0.000071   0.000020  -0.000039   0.001799   0.000786
     7  H   -0.000003  -0.000001  -0.000000   0.000000  -0.000033  -0.000019
     8  H   -0.000039  -0.000017  -0.000006   0.000004  -0.000170  -0.000081
     9  O   -0.000296  -0.000042  -0.000036   0.000035  -0.002092  -0.000243
    10  O    0.005243   0.000869   0.000850  -0.000646   0.006527   0.000985
    11  H   -0.002368  -0.000812  -0.000535   0.000910  -0.004560  -0.000642
    12  H   -0.001363  -0.000224  -0.000621   0.003893  -0.002190  -0.000225
    13  C   -0.024408   0.003509   0.003793   0.001016   0.004620   0.000880
    14  H    0.003509   0.005612   0.000859  -0.004273   0.001045   0.000479
    15  H    0.003793   0.000859   0.005586  -0.003986   0.000155   0.000078
    16  H    0.001016  -0.004273  -0.003986   0.052357  -0.001187  -0.000679
    17  C    0.004620   0.001045   0.000155  -0.001187  -0.022600   0.003724
    18  H    0.000880   0.000479   0.000078  -0.000679   0.003724   0.004660
    19  H   -0.001248  -0.000688  -0.000209   0.003902  -0.001009  -0.003758
    20  H   -0.000008   0.000046   0.000008  -0.000108   0.004049   0.000289
              19         20
     1  C   -0.002483   0.001076
     2  H   -0.000216   0.000029
     3  H   -0.000446   0.000077
     4  C   -0.010862  -0.003525
     5  C    0.000127  -0.000490
     6  H   -0.000424   0.000994
     7  H    0.000007  -0.000023
     8  H    0.000022  -0.000085
     9  O    0.000217  -0.000826
    10  O   -0.000748   0.000768
    11  H    0.000862   0.000511
    12  H    0.004127  -0.000383
    13  C   -0.001248  -0.000008
    14  H   -0.000688   0.000046
    15  H   -0.000209   0.000008
    16  H    0.003902  -0.000108
    17  C   -0.001009   0.004049
    18  H   -0.003758   0.000289
    19  H    0.050875  -0.002621
    20  H   -0.002621   0.003913
 Mulliken charges and spin densities:
               1          2
     1  C   -0.295413  -0.024723
     2  H    0.107157   0.002496
     3  H    0.113216   0.003883
     4  C   -0.002967   0.526489
     5  C   -0.056299  -0.003990
     6  H    0.067269   0.002424
     7  H    0.094125  -0.001139
     8  H    0.091409   0.001918
     9  O   -0.194366   0.024650
    10  O   -0.233140   0.461073
    11  H    0.207160  -0.067264
    12  H    0.092214   0.035354
    13  C   -0.301549  -0.021824
    14  H    0.105299   0.003076
    15  H    0.110508   0.003585
    16  H    0.096120   0.036195
    17  C   -0.323821  -0.024043
    18  H    0.106532   0.002722
    19  H    0.102479   0.035427
    20  H    0.114065   0.003691
 Sum of Mulliken charges =  -0.00000   1.00000
 Mulliken charges and spin densities with hydrogens summed into heavy atoms:
               1          2
     1  C    0.017174   0.017010
     4  C   -0.002967   0.526489
     5  C    0.196505  -0.000787
     9  O   -0.194366   0.024650
    10  O   -0.025980   0.393809
    13  C    0.010378   0.021033
    17  C   -0.000744   0.017796
 APT charges:
               1
     1  C   -0.063066
     2  H   -0.003010
     3  H    0.006459
     4  C    0.609746
     5  C    0.451513
     6  H   -0.035063
     7  H   -0.012425
     8  H   -0.035852
     9  O   -0.465059
    10  O    0.176080
    11  H   -0.396502
    12  H   -0.028403
    13  C   -0.050797
    14  H   -0.006281
    15  H   -0.002391
    16  H   -0.040400
    17  C   -0.075272
    18  H   -0.008303
    19  H   -0.019789
    20  H   -0.001187
 Sum of APT charges =  -0.00000
 APT charges with hydrogens summed into heavy atoms:
               1
     1  C   -0.088020
     4  C    0.609746
     5  C    0.368174
     9  O   -0.465059
    10  O   -0.220422
    13  C   -0.099868
    17  C   -0.104551
 Electronic spatial extent (au):  <R**2>=           1091.6161
 Charge=              0.0000 electrons
 Dipole moment (field-independent basis, Debye):
    X=             -0.9633    Y=              2.0843    Z=              0.0548  Tot=              2.2968
 Quadrupole moment (field-independent basis, Debye-Ang):
   XX=            -41.8575   YY=            -47.2858   ZZ=            -46.5951
   XY=              3.9042   XZ=             -0.2438   YZ=             -0.2342
 Traceless Quadrupole moment (field-independent basis, Debye-Ang):
   XX=              3.3886   YY=             -2.0397   ZZ=             -1.3490
   XY=              3.9042   XZ=             -0.2438   YZ=             -0.2342
 Octapole moment (field-independent basis, Debye-Ang**2):
  XXX=             25.6445  YYY=             -5.3266  ZZZ=             -0.8844  XYY=              1.6026
  XXY=              5.9553  XXZ=             -0.8769  XZZ=              4.4210  YZZ=             -0.3229
  YYZ=             -0.4569  XYZ=              0.0885
 Hexadecapole moment (field-independent basis, Debye-Ang**3):
 XXXX=           -881.5412 YYYY=           -278.3834 ZZZZ=           -245.4915 XXXY=              5.0810
 XXXZ=             -5.5203 YYYX=             -0.5385 YYYZ=              0.2557 ZZZX=              2.8664
 ZZZY=              0.5466 XXYY=           -203.5685 XXZZ=           -195.6981 YYZZ=            -87.1586
 XXYZ=              6.2150 YYXZ=              1.0041 ZZXY=             -0.7401
 N-N= 3.335062217319D+02 E-N=-1.480669953846D+03  KE= 3.465156420954D+02
  Exact polarizability: 116.576  -2.848  71.901  -1.839   1.401  70.428
 Approx polarizability: 101.420  -4.403  80.355   0.198   3.059  80.090
                          Isotropic Fermi Contact Couplings
        Atom                 a.u.       MegaHertz       Gauss      10(-4) cm-1
     1  C(13)             -0.00629      -7.07549      -2.52471      -2.36013
     2  H(1)               0.00168       7.53044       2.68705       2.51189
     3  H(1)               0.00280      12.52319       4.46859       4.17729
     4  C(13)              0.08526      95.85300      34.20273      31.97312
     5  C(13)             -0.00342      -3.84102      -1.37057      -1.28123
     6  H(1)               0.00174       7.76918       2.77223       2.59152
     7  H(1)              -0.00019      -0.84342      -0.30095      -0.28133
     8  H(1)               0.00042       1.86182       0.66434       0.62104
     9  O(17)              0.01552      -9.41111      -3.35812      -3.13921
    10  O(17)              0.06050     -36.67516     -13.08661     -12.23352
    11  H(1)              -0.01437     -64.24428     -22.92396     -21.42958
    12  H(1)               0.01471      65.74297      23.45873      21.92949
    13  C(13)             -0.00602      -6.76942      -2.41550      -2.25804
    14  H(1)               0.00207       9.26620       3.30641       3.09087
    15  H(1)               0.00228      10.17513       3.63074       3.39406
    16  H(1)               0.01485      66.35750      23.67801      22.13448
    17  C(13)             -0.00647      -7.27852      -2.59716      -2.42785
    18  H(1)               0.00162       7.25631       2.58923       2.42044
    19  H(1)               0.01463      65.40164      23.33693      21.81564
    20  H(1)               0.00264      11.79212       4.20772       3.93343
 --------------------------------------------------------
       Center         ----  Spin Dipole Couplings  ----
                      3XX-RR        3YY-RR        3ZZ-RR
 --------------------------------------------------------
     1   Atom        0.000115     -0.009726      0.009611
     2   Atom       -0.001915      0.004432     -0.002517
     3   Atom       -0.005022     -0.006400      0.011422
     4   Atom        0.446735     -0.197784     -0.248951
     5   Atom        0.003805      0.001658     -0.005463
     6   Atom        0.000111      0.005230     -0.005341
     7   Atom        0.003203     -0.000225     -0.002978
     8   Atom        0.005822     -0.001912     -0.003910
     9   Atom        0.217351      0.003613     -0.220964
    10   Atom        0.667203     -0.085021     -0.582183
    11   Atom        0.159126     -0.062025     -0.097101
    12   Atom        0.000960     -0.003575      0.002615
    13   Atom        0.015306     -0.014273     -0.001033
    14   Atom       -0.002218     -0.006324      0.008542
    15   Atom        0.002027     -0.001136     -0.000892
    16   Atom        0.006653     -0.005390     -0.001263
    17   Atom       -0.010457      0.024287     -0.013830
    18   Atom       -0.004366      0.010425     -0.006060
    19   Atom       -0.001173      0.005992     -0.004819
    20   Atom       -0.002798      0.005136     -0.002338
 --------------------------------------------------------
                        XY            XZ            YZ
 --------------------------------------------------------
     1   Atom        0.005628     -0.016068     -0.010288
     2   Atom        0.004542     -0.004323     -0.007439
     3   Atom       -0.001544      0.000044     -0.003869
     4   Atom       -0.331548     -0.263754      0.111744
     5   Atom        0.008704      0.001322     -0.000150
     6   Atom        0.005819     -0.000625     -0.000307
     7   Atom        0.004071      0.001832      0.001563
     8   Atom        0.005504     -0.002610     -0.001494
     9   Atom       -0.281598     -0.103227      0.041026
    10   Atom       -1.197049     -0.783411      0.575974
    11   Atom       -0.125506     -0.073349      0.035127
    12   Atom       -0.000440     -0.006383     -0.002469
    13   Atom       -0.000150      0.018838      0.001123
    14   Atom       -0.002616      0.006415     -0.002796
    15   Atom        0.005726      0.005940      0.006689
    16   Atom       -0.001620      0.004022      0.001168
    17   Atom       -0.006864     -0.000684      0.007008
    18   Atom        0.000963     -0.001059     -0.004781
    19   Atom       -0.003149     -0.002340      0.003423
    20   Atom        0.003967      0.002390      0.008548
 --------------------------------------------------------


 ---------------------------------------------------------------------------------
              Anisotropic Spin Dipole Couplings in Principal Axis System
 ---------------------------------------------------------------------------------

       Atom             a.u.   MegaHertz   Gauss  10(-4) cm-1        Axes

              Baa    -0.0145    -1.946    -0.694    -0.649  0.2563  0.8156  0.5188
     1 C(13)  Bbb    -0.0110    -1.470    -0.525    -0.490  0.7899 -0.4861  0.3740
              Bcc     0.0255     3.416     1.219     1.139 -0.5572 -0.3139  0.7688
 
              Baa    -0.0077    -4.091    -1.460    -1.365  0.3234  0.4045  0.8554
     2 H(1)   Bbb    -0.0043    -2.268    -0.809    -0.756  0.8537 -0.5146 -0.0795
              Bcc     0.0119     6.359     2.269     2.121  0.4081  0.7560 -0.5118
 
              Baa    -0.0080    -4.253    -1.518    -1.419  0.4548  0.8736  0.1733
     3 H(1)   Bbb    -0.0043    -2.274    -0.811    -0.759  0.8903 -0.4415 -0.1114
              Bcc     0.0122     6.527     2.329     2.177  0.0208 -0.2049  0.9786
 
              Baa    -0.3381   -45.365   -16.187   -15.132  0.1604  0.8185 -0.5516
     4 C(13)  Bbb    -0.3375   -45.292   -16.161   -15.108  0.4474  0.4379  0.7798
              Bcc     0.6756    90.657    32.349    30.240  0.8798 -0.3719 -0.2960
 
              Baa    -0.0068    -0.912    -0.325    -0.304 -0.5476  0.5746  0.6082
     5 C(13)  Bbb    -0.0048    -0.638    -0.228    -0.213  0.3709 -0.4849  0.7920
              Bcc     0.0115     1.550     0.553     0.517  0.7500  0.6593  0.0525
 
              Baa    -0.0054    -2.901    -1.035    -0.968  0.1887 -0.0747  0.9792
     6 H(1)   Bbb    -0.0036    -1.929    -0.688    -0.643  0.8156 -0.5435 -0.1986
              Bcc     0.0091     4.830     1.723     1.611  0.5470  0.8361 -0.0416
 
              Baa    -0.0037    -1.966    -0.701    -0.656  0.0034 -0.4151  0.9098
     7 H(1)   Bbb    -0.0028    -1.507    -0.538    -0.503 -0.5951  0.7303  0.3354
              Bcc     0.0065     3.473     1.239     1.158  0.8036  0.5426  0.2446
 
              Baa    -0.0048    -2.578    -0.920    -0.860 -0.3274  0.8394  0.4339
     8 H(1)   Bbb    -0.0045    -2.418    -0.863    -0.806  0.3812 -0.3029  0.8735
              Bcc     0.0094     4.995     1.782     1.666  0.8646  0.4514 -0.2208
 
              Baa    -0.2493    18.036     6.436     6.016  0.3422  0.2335  0.9101
     9 O(17)  Bbb    -0.1805    13.058     4.659     4.356  0.4666  0.7985 -0.3803
              Bcc     0.4297   -31.094   -11.095   -10.372  0.8156 -0.5548 -0.1644
 
              Baa    -0.9638    69.738    24.884    23.262  0.5347  0.8305 -0.1558
    10 O(17)  Bbb    -0.9594    69.424    24.772    23.157  0.3864 -0.0764  0.9191
              Bcc     1.9232  -139.162   -49.657   -46.420  0.7515 -0.5517 -0.3618
 
              Baa    -0.1198   -63.927   -22.811   -21.324  0.2368  0.8256 -0.5122
    11 H(1)   Bbb    -0.1159   -61.823   -22.060   -20.622  0.4014  0.3970  0.8254
              Bcc     0.2357   125.750    44.871    41.946  0.8848 -0.4010 -0.2373
 
              Baa    -0.0062    -3.313    -1.182    -1.105  0.5422  0.6211  0.5660
    12 H(1)   Bbb    -0.0022    -1.187    -0.423    -0.396 -0.5454  0.7725 -0.3253
              Bcc     0.0084     4.499     1.605     1.501 -0.6393 -0.1323  0.7575
 
              Baa    -0.0150    -2.006    -0.716    -0.669  0.2933  0.8356 -0.4644
    13 C(13)  Bbb    -0.0127    -1.708    -0.609    -0.570 -0.4641  0.5491  0.6950
              Bcc     0.0277     3.714     1.325     1.239  0.8358  0.0117  0.5489
 
              Baa    -0.0076    -4.058    -1.448    -1.354  0.4681  0.8831 -0.0331
    14 H(1)   Bbb    -0.0046    -2.478    -0.884    -0.827  0.7739 -0.4277 -0.4671
              Bcc     0.0123     6.536     2.332     2.180  0.4267 -0.1931  0.8836
 
              Baa    -0.0077    -4.111    -1.467    -1.371 -0.0164 -0.7063  0.7077
    15 H(1)   Bbb    -0.0046    -2.452    -0.875    -0.818  0.7795 -0.4522 -0.4333
              Bcc     0.0123     6.563     2.342     2.189  0.6261  0.5446  0.5580
 
              Baa    -0.0063    -3.374    -1.204    -1.125  0.2322  0.8910 -0.3902
    16 H(1)   Bbb    -0.0021    -1.117    -0.399    -0.373 -0.3038  0.4476  0.8411
              Bcc     0.0084     4.491     1.603     1.498  0.9240 -0.0767  0.3746
 
              Baa    -0.0152    -2.034    -0.726    -0.678 -0.1481 -0.1979  0.9690
    17 C(13)  Bbb    -0.0116    -1.563    -0.558    -0.521  0.9722  0.1507  0.1794
              Bcc     0.0268     3.597     1.283     1.200 -0.1815  0.9686  0.1701
 
              Baa    -0.0075    -4.022    -1.435    -1.342  0.2419  0.2374  0.9408
    18 H(1)   Bbb    -0.0043    -2.275    -0.812    -0.759  0.9674 -0.1335 -0.2151
              Bcc     0.0118     6.297     2.247     2.100  0.0745  0.9622 -0.2620
 
              Baa    -0.0063    -3.347    -1.194    -1.116  0.3172 -0.1786  0.9314
    19 H(1)   Bbb    -0.0021    -1.143    -0.408    -0.381  0.8765  0.4302 -0.2160
              Bcc     0.0084     4.489     1.602     1.497 -0.3621  0.8849  0.2929
 
              Baa    -0.0079    -4.235    -1.511    -1.413  0.0430 -0.5558  0.8302
    20 H(1)   Bbb    -0.0042    -2.253    -0.804    -0.752  0.9544 -0.2230 -0.1987
              Bcc     0.0122     6.488     2.315     2.164  0.2956  0.8008  0.5209
 

 ---------------------------------------------------------------------------------

 Calling FoFJK, ICntrl=  10100127 FMM=F ISym2X=0 I1Cent= 0 IOpClX= 1 NMat=1 NMatS=1 NMatT=0.
 ***** Axes restored to original set *****
 -------------------------------------------------------------------
 Center     Atomic                   Forces (Hartrees/Bohr)
 Number     Number              X              Y              Z
 -------------------------------------------------------------------
      1        6           0.000011572    0.000020503    0.000007259
      2        1          -0.000003122    0.000001544   -0.000002582
      3        1          -0.000001380    0.000001913   -0.000002241
      4        6          -0.000008715   -0.000032074    0.000001115
      5        6           0.000000819    0.000002219    0.000004455
      6        1           0.000000524    0.000000843   -0.000001241
      7        1           0.000000907   -0.000000276    0.000000012
      8        1          -0.000000471    0.000000032   -0.000000185
      9        8          -0.000006074   -0.000001280   -0.000027200
     10        8           0.000016002   -0.000000811    0.000023881
     11        1          -0.000001185    0.000001621    0.000005489
     12        1          -0.000002289    0.000002323   -0.000002013
     13        6          -0.000000349    0.000006811   -0.000002564
     14        1           0.000000141    0.000002060   -0.000003389
     15        1           0.000001054   -0.000002663    0.000001259
     16        1           0.000001357    0.000000742    0.000000208
     17        6          -0.000007578   -0.000002436    0.000002069
     18        1           0.000001715   -0.000000311   -0.000003755
     19        1          -0.000001388    0.000001419   -0.000000773
     20        1          -0.000001539   -0.000002180    0.000000194
 -------------------------------------------------------------------
 Cartesian Forces:  Max     0.000032074 RMS     0.000007749
 FormGI is forming the generalized inverse of G from B-inverse, IUseBI=4.

 GradGradGradGradGradGradGradGradGradGradGradGradGradGradGradGradGradGrad
 Berny optimization.
 Internal  Forces:  Max     0.000033364 RMS     0.000006812
 Search for a saddle point.
 Step number   1 out of a maximum of  120
 All quantities printed in internal units (Hartrees-Bohrs-Radians)
 Swapping is turned off.
 Second derivative matrix not updated -- analytic derivatives used.
 ITU=  0
     Eigenvalues ---   -0.07131   0.00014   0.00172   0.00211   0.00285
     Eigenvalues ---    0.00576   0.01689   0.02175   0.02286   0.02869
     Eigenvalues ---    0.03131   0.04387   0.04399   0.04472   0.04508
     Eigenvalues ---    0.04567   0.04611   0.06338   0.08517   0.08542
     Eigenvalues ---    0.10565   0.10645   0.11939   0.11976   0.12415
     Eigenvalues ---    0.13030   0.13953   0.14028   0.14112   0.14646
     Eigenvalues ---    0.15995   0.16679   0.17042   0.17059   0.17984
     Eigenvalues ---    0.18813   0.24970   0.29383   0.29488   0.31544
     Eigenvalues ---    0.31809   0.32660   0.32682   0.33115   0.33681
     Eigenvalues ---    0.33834   0.34061   0.34145   0.34397   0.34597
     Eigenvalues ---    0.34658   0.34838   0.35539   0.40535
 Eigenvectors required to have negative eigenvalues:
                          R13       R5        R12       A20       D34
   1                    0.72718  -0.62071  -0.16241   0.09111   0.07924
                          D14       D2        D24       D28       D19
   1                   -0.05029   0.04912   0.04749  -0.04732   0.04701
 RFO step:  Lambda0=4.707733647D-10 Lambda=-1.08690516D-05.
 Linear search not attempted -- option 19 set.
 Iteration  1 RMS(Cart)=  0.08541929 RMS(Int)=  0.00303043
 Iteration  2 RMS(Cart)=  0.00500833 RMS(Int)=  0.00002142
 Iteration  3 RMS(Cart)=  0.00001927 RMS(Int)=  0.00002025
 Iteration  4 RMS(Cart)=  0.00000000 RMS(Int)=  0.00002025
 Variable       Old X    -DE/DX   Delta X   Delta X   Delta X     New X
                                 (Linear)    (Quad)   (Total)
    R1        2.05712  -0.00000   0.00000   0.00007   0.00007   2.05718
    R2        2.05810  -0.00000   0.00000  -0.00009  -0.00009   2.05801
    R3        2.85062  -0.00001   0.00000   0.00027   0.00027   2.85090
    R4        2.07013  -0.00000   0.00000  -0.00002  -0.00002   2.07011
    R5        2.47841  -0.00001   0.00000   0.00056   0.00056   2.47898
    R6        2.85085   0.00001   0.00000  -0.00005  -0.00005   2.85080
    R7        2.85085   0.00000   0.00000  -0.00031  -0.00031   2.85054
    R8        2.05975   0.00000   0.00000   0.00001   0.00001   2.05976
    R9        2.05651  -0.00000   0.00000   0.00001   0.00001   2.05652
   R10        2.05751   0.00000   0.00000  -0.00005  -0.00005   2.05746
   R11        2.68591  -0.00000   0.00000  -0.00005  -0.00005   2.68586
   R12        2.66048   0.00000   0.00000   0.00012   0.00012   2.66061
   R13        2.29026  -0.00001   0.00000  -0.00003  -0.00002   2.29023
   R14        2.05829   0.00000   0.00000  -0.00009  -0.00009   2.05820
   R15        2.05816   0.00000   0.00000   0.00010   0.00010   2.05826
   R16        2.07023   0.00000   0.00000   0.00005   0.00005   2.07028
   R17        2.05831   0.00000   0.00000  -0.00004  -0.00004   2.05827
   R18        2.07019  -0.00000   0.00000  -0.00003  -0.00003   2.07016
   R19        2.05861   0.00000   0.00000   0.00016   0.00016   2.05877
    A1        1.89084   0.00000   0.00000   0.00044   0.00044   1.89128
    A2        1.94339  -0.00000   0.00000   0.00034   0.00034   1.94373
    A3        1.88314   0.00000   0.00000  -0.00058  -0.00058   1.88256
    A4        1.93878  -0.00000   0.00000   0.00028   0.00028   1.93907
    A5        1.88221   0.00000   0.00000  -0.00025  -0.00025   1.88196
    A6        1.92341  -0.00000   0.00000  -0.00027  -0.00027   1.92315
    A7        1.78102   0.00000   0.00000   0.00123   0.00122   1.78224
    A8        2.00779  -0.00002   0.00000  -0.00057  -0.00059   2.00720
    A9        1.99556   0.00001   0.00000  -0.00097  -0.00100   1.99456
   A10        1.81034   0.00000   0.00000   0.00429   0.00429   1.81462
   A11        1.82576  -0.00001   0.00000  -0.00559  -0.00560   1.82016
   A12        2.00512   0.00000   0.00000   0.00156   0.00162   2.00673
   A13        1.91938  -0.00000   0.00000  -0.00014  -0.00014   1.91924
   A14        1.91724  -0.00000   0.00000   0.00034   0.00034   1.91758
   A15        1.93788  -0.00000   0.00000  -0.00022  -0.00022   1.93767
   A16        1.92224   0.00000   0.00000   0.00008   0.00008   1.92233
   A17        1.83651  -0.00000   0.00000   0.00007   0.00007   1.83658
   A18        1.92931   0.00000   0.00000  -0.00015  -0.00015   1.92916
   A19        1.88048  -0.00001   0.00000  -0.00040  -0.00040   1.88008
   A20        1.81625  -0.00002   0.00000   0.00019   0.00019   1.81644
[...]
 0001500,-0.00002953,0.00008020,-0.00003781,0.00001141,0.00136419,-0.00
 017528,-0.00057581,-0.17789294,0.11827707,0.05231594,-0.00957244,0.011
 36494,0.00585823,0.01156113,-0.00870624,-0.00264669,0.19811075,0.00026
 657,-0.00002000,-0.00021399,-0.00001863,0.00001864,0.00000114,-0.00003
 460,0.00000279,0.00000029,-0.00144436,0.00007621,0.00075121,0.12331651
 ,-0.16767240,-0.04469231,-0.00774105,0.00712992,0.00300916,0.02058109,
 -0.01628932,-0.00759626,-0.13761930,0.17461426,-0.00009096,0.00007009,
 0.00018330,0.00002337,-0.00001496,0.00002673,0.00008276,-0.00003541,-0
 .00002208,0.00091336,-0.00022743,-0.00062859,0.05576556,-0.05060621,-0
 .06883575,0.01838473,-0.01799592,-0.00489383,0.00249489,-0.00073331,-0
 .00031175,-0.04616986,0.04608584,0.07457784,-0.00123707,-0.00030396,0.
 00141099,-0.00001359,-0.00025359,-0.00014650,0.00015531,0.00034848,0.0
 0004259,0.01477701,-0.00230963,-0.00432033,-0.12046606,0.04008491,-0.0
 7488446,0.00834566,-0.00172067,-0.00379332,-0.01157281,-0.00044004,-0.
 01243687,-0.02553680,0.00313199,-0.03373933,0.22459848,-0.00550789,-0.
 00078550,0.00442120,-0.00001833,-0.00019345,-0.00043389,-0.00002165,0.
 00096449,-0.00036921,0.04167580,-0.00480541,-0.01758001,0.01600458,-0.
 08404884,0.02809700,0.00659615,0.00013612,0.00791555,-0.02370609,0.000
 50924,-0.02638561,0.01362468,-0.00021395,0.01995993,0.05106524,0.28687
 330,-0.00251983,-0.00029286,0.00181713,0.00021787,-0.00008150,0.000042
 78,0.00018071,0.00027756,-0.00018734,0.01519251,-0.00062116,-0.0074471
 0,-0.06698395,0.05338748,-0.15189620,-0.03212420,0.00430629,-0.0359329
 9,-0.00438869,-0.00104753,-0.00489717,-0.01182151,0.00278978,-0.001902
 58,0.14191417,-0.02857768,0.23291328,0.01001701,-0.00158222,-0.0026493
 4,0.00000150,0.00032161,-0.00005193,0.00003181,-0.00048754,-0.00011060
 ,-0.12891167,0.01082781,0.05806195,-0.02181145,-0.04190807,-0.01638227
 ,0.00322954,0.00155295,0.00406510,-0.00355433,0.00054887,-0.00552602,0
 .00451729,-0.00249615,0.00369280,-0.05832935,-0.02105439,-0.01570500,0
 .09901450,0.00663505,0.00084380,-0.00525713,-0.00006106,0.00008728,0.0
 0043729,-0.00013773,-0.00072119,0.00031323,-0.04208820,0.00795313,0.01
 811432,-0.01850538,-0.01916378,-0.01766098,0.00351927,0.00100422,0.003
 44810,-0.00066446,0.00395652,-0.00228654,0.00344158,0.00260365,0.00370
 066,-0.06591743,-0.19206734,-0.03890440,0.03607006,0.22259515,-0.00421
 549,0.00106468,0.00059319,0.00055026,0.00008871,0.00049177,0.00031987,
 -0.00064369,0.00012153,0.05281199,-0.00406213,-0.02157842,-0.01206657,
 -0.03799937,-0.00644513,0.00074928,-0.00132501,0.00309223,-0.00476950,
 -0.00031529,-0.00366311,0.00178232,0.00059248,0.00139857,-0.01897948,-
 0.02160738,-0.04488092,0.01494123,0.08090491,0.07392002,-0.03069198,0.
 00629921,0.00630574,0.00094459,-0.00054248,0.00031635,0.00102670,-0.00
 022062,0.00028142,0.08736240,-0.00930405,-0.04886259,0.00786582,0.0016
 9681,0.01364898,-0.00073421,0.00088265,-0.00360511,-0.00011453,-0.0002
 8513,-0.00014744,-0.00182776,0.00161595,-0.00117289,-0.02475631,-0.063
 63569,-0.01865921,0.07452604,0.06131737,-0.02581290,-0.07881920,0.0086
 0597,-0.00219512,-0.00045454,-0.00039224,0.00025444,-0.00012969,0.0005
 6925,-0.00033251,-0.00003392,0.00194712,-0.02471999,-0.00234237,0.0000
 0089,-0.00090948,0.00122658,0.00006890,0.00046141,-0.00024107,-0.00015
 012,0.00011582,-0.00022080,-0.00015822,-0.00016994,-0.00020908,-0.0242
 9464,-0.00975482,0.00742274,0.02030870,-0.02538348,-0.01687579,0.00235
 549,0.07262705,-0.00072609,0.00107965,-0.00117907,-0.00098108,0.000094
 39,-0.00031654,-0.00033482,0.00025691,0.00004665,-0.05454829,0.0031165
 4,0.00129138,-0.00643000,-0.00262683,-0.00371092,0.00075466,-0.0003443
 2,0.00111282,-0.00004571,0.00008435,-0.00068154,0.00100275,-0.00061988
 ,0.00030141,0.00345511,0.02892934,0.01032962,-0.03079134,-0.03709836,-
 0.00710453,0.06286141,0.01097524,0.01943338,-0.26498260,0.03157001,0.0
 7748459,0.00130290,-0.00045976,-0.00031353,-0.01279113,0.00245859,0.00
 435050,-0.01941868,0.00510481,0.00127366,0.00040040,-0.00001901,0.0005
 7478,-0.00003762,0.00005725,-0.00010865,-0.00006543,-0.00002930,-0.000
 05120,-0.00008024,0.00007730,-0.00006665,-0.00043991,-0.00126003,-0.00
 051773,0.00061451,0.00119358,0.00022031,-0.00076220,0.00117047,-0.0017
 4483,0.29347870,0.03468279,-0.04986399,-0.01320594,0.01593985,-0.00281
 740,-0.00460314,-0.02773930,0.00522270,0.00934118,0.01680020,-0.004981
 85,-0.00305090,-0.00022992,0.00006828,-0.00044142,0.00001540,-0.000035
 73,0.00006900,0.00005798,0.00002269,0.00004850,0.00003402,-0.00005728,
 0.00002090,0.00051218,0.00152164,0.00068126,-0.00118795,-0.00156051,-0
 .00010477,0.00244431,-0.00044838,0.00052272,-0.03949726,0.05164142,0.0
 7132949,-0.01113946,-0.06937429,0.02697435,-0.00297393,-0.00834983,0.0
 0416220,-0.00110473,-0.00240361,-0.02129716,0.00407131,0.00420876,0.00
 032370,-0.00005595,0.00053195,-0.00001189,0.00005363,-0.00009574,-0.00
 005292,-0.00002647,-0.00004774,-0.00003621,0.00007110,-0.00003408,-0.0
 0056002,-0.00182928,-0.00061586,0.00159222,0.00194790,-0.00005855,-0.0
 0386746,0.00092902,0.00036320,-0.08065150,0.01109142,0.07439239,0.0082
 9295,0.01933477,-0.00363698,-0.00003505,-0.00022827,0.00045788,-0.0018
 3411,0.00291323,-0.00325979,-0.06927590,-0.04057791,-0.00644182,0.0017
 9137,-0.00005187,0.00238778,-0.00006302,0.00022440,-0.00060007,-0.0002
 0306,-0.00008165,-0.00017664,-0.00031163,0.00026420,-0.00018939,-0.003
 56536,-0.00706502,-0.00203456,0.01241396,0.00690756,-0.00448357,-0.024
 71604,-0.01463876,0.01111301,0.00050980,-0.00025496,0.00026784,0.52804
 145,-0.00552120,-0.02088855,0.00720570,-0.00061028,0.00124909,-0.00125
 271,0.00165320,-0.00027568,0.00143898,-0.03015651,-0.18797108,0.011530
 31,-0.00067929,0.00008726,-0.00095948,0.00007498,-0.00011200,0.0002178
 1,0.00012498,0.00004237,0.00011470,0.00013143,-0.00010671,0.00008874,0
 .00127134,0.00257984,0.00089556,0.00091833,-0.00176483,-0.00115489,-0.
 00418115,-0.00412770,0.00200208,-0.00091993,0.00119953,-0.00108592,-0.
 03233713,0.48654257,0.00732496,0.02309052,-0.00303243,0.00069792,0.000
 60418,0.00070899,-0.00260759,0.00285678,-0.00296419,-0.00615921,0.0162
 3473,-0.08048379,-0.00075223,-0.00002743,-0.00104693,0.00012763,-0.000
 23500,0.00029029,0.00010277,0.00006840,0.00002274,0.00009095,-0.000118
 49,0.00017855,0.00136612,0.00316440,0.00075033,-0.00508361,-0.00292224
 ,0.00182268,0.01058794,0.00622132,-0.00436898,0.00018943,-0.00048119,0
 .00056071,0.02413058,0.01222049,0.57570228,0.00011839,-0.00189938,0.00
 021962,-0.00014904,-0.00000446,-0.00007013,0.00045658,-0.00045977,0.00
 024170,0.00577600,-0.00604333,0.00787662,-0.00010538,0.00001599,-0.000
 17169,0.00001478,-0.00002996,0.00001570,0.00002425,0.00001674,0.000013
 71,0.00001261,-0.00002713,0.00002301,0.00019054,0.00038723,0.00013855,
 -0.00028973,-0.00016193,-0.00006836,0.00107155,-0.00005215,-0.00009896
 ,0.00027865,-0.00036383,0.00011516,-0.14842764,0.08090951,-0.10341028,
 0.15940562,-0.00353584,-0.00573476,-0.00052963,-0.00015192,0.00023304,
 -0.00001289,0.00105464,-0.00097612,0.00143720,0.02063272,-0.01535639,0
 .02065723,0.00000467,-0.00004314,0.00029168,0.00001186,-0.00001678,-0.
 00008506,0.00000146,0.00001128,-0.00003854,-0.00001545,0.00001512,-0.0
 0002437,-0.00006851,-0.00016454,-0.00027183,-0.00049428,0.00049096,0.0
 0014255,0.00087313,0.00012672,-0.00005687,-0.00000854,0.00017436,-0.00
 029987,0.07915616,-0.10940704,0.07719088,-0.08606266,0.12076879,0.0007
 6106,0.00083726,0.00080687,0.00011914,-0.00015283,0.00054626,-0.000391
 01,0.00042840,0.00019227,-0.00135684,0.00264536,-0.00428576,-0.0000083
 9,0.00002205,-0.00004784,-0.00001293,0.00002994,0.00001893,-0.00000358
 ,-0.00001388,0.00000941,0.00003464,0.00000494,-0.00001333,0.00007259,-
 0.00001568,0.00017216,0.00030723,-0.00035116,-0.00014578,-0.00061550,0
 .00026465,-0.00006991,-0.00024970,0.00010734,-0.00002064,-0.10266540,0
 .07770855,-0.14955049,0.11266146,-0.08826228,0.15956926,-0.00025513,0.
 00062534,0.00031711,0.00033552,0.00011799,0.00007430,-0.00013903,0.000
 02449,-0.00006413,-0.00267839,-0.00604525,-0.00984941,-0.00008483,0.00
 008350,-0.00022967,0.00000956,-0.00002358,0.00005839,0.00003420,0.0000
 0802,0.00004308,-0.00000055,-0.00002301,0.00002581,0.00024565,0.000280
 60,0.00015075,-0.00046870,0.00007840,0.00030224,0.00086309,-0.00027902
 ,-0.00093429,-0.00002155,0.00015831,0.00006813,-0.04597570,0.00062601,
 -0.00321498,-0.00021797,-0.01075797,-0.01776603,0.04706470,-0.00006083
 ,0.00131460,-0.00130696,0.00028725,-0.00013194,0.00102930,-0.00020160,
 0.00050735,0.00020704,-0.00058046,-0.01480856,-0.02937660,0.00005127,0
 .00006814,-0.00010950,0.00002218,-0.00005077,0.00003502,0.00002759,0.0
 0000064,0.00001611,-0.00001770,-0.00000126,0.00003520,0.00001762,-0.00
 014473,0.00007031,-0.00057906,0.00035150,0.00045900,0.00076422,0.00012
 560,-0.00076978,-0.00003361,0.00003258,0.00006672,-0.00009359,-0.10553
 675,-0.10800781,-0.00103105,0.00802733,0.01460785,0.00341592,0.1164232
 9,0.00009343,0.00043253,0.00075554,0.00018663,-0.00016172,0.00032875,-
 0.00000305,0.00002287,0.00024646,-0.00042539,0.00206043,0.00383902,0.0
 0011815,0.00001595,0.00000043,-0.00000642,0.00000413,0.00000760,-0.000
 00636,-0.00001032,0.00000549,-0.00002839,0.00000897,0.00000444,-0.0002
 0915,-0.00028398,-0.00006617,-0.00011929,0.00024720,0.00013640,-0.0002
 0582,-0.00009969,0.00018904,-0.00001484,-0.00000218,-0.00007930,-0.003
 88975,-0.10955490,-0.25609512,0.00111270,-0.00897055,-0.01625824,0.003
 44798,0.12048348,0.27644016,0.00039586,0.00040351,-0.00045450,-0.00000
 744,-0.00000926,-0.00002157,0.00019668,-0.00016639,-0.00010753,-0.0109
 4210,-0.00496769,0.00417921,0.00033813,0.00003622,0.00026353,-0.000042
 53,0.00005366,-0.00006167,-0.00004065,-0.00002327,-0.00001519,-0.00004
 311,0.00003945,-0.00004069,-0.00020483,-0.00090211,-0.00027300,0.00005
 392,0.00122980,0.00025592,0.00082730,-0.00185430,-0.00042607,0.0004926
 4,-0.00037782,0.00042187,-0.25762146,-0.00306777,0.08901982,-0.0184282
 3,-0.00067090,0.00834855,0.00063200,0.00039344,-0.00061422,0.28348902,
 0.00008560,0.00174185,-0.00106057,-0.00000516,-0.00009095,0.00000922,0
 .00017690,0.00018094,-0.00040694,-0.02935289,-0.00629760,0.01224901,0.
 00068603,-0.00002026,0.00090522,-0.00002741,0.00008991,-0.00022599,-0.
 00008238,-0.00003636,-0.00006642,-0.00012749,0.00009816,-0.00008638,-0
 .00122638,-0.00251989,-0.00082753,0.00206944,0.00271873,-0.00030469,-0
 .00376273,-0.00278656,0.00153134,0.00076091,-0.00038511,0.00013542,-0.
 00981853,-0.04349405,0.00426123,0.01436801,0.00008401,-0.00698306,0.01
 460048,0.00007354,-0.00519050,0.00998187,0.04922048,-0.00006899,-0.000
 42907,0.00040314,0.00019073,-0.00002658,-0.00003488,-0.00023630,0.0000
 0709,0.00006487,0.00388426,0.00200094,-0.00255306,-0.00007435,0.000010
 97,-0.00015744,0.00000283,-0.00000464,0.00002786,0.00001984,0.00000185
 ,0.00002441,0.00002524,-0.00001354,0.00000877,0.00001335,0.00024355,0.
 00023003,-0.00010516,-0.00050740,-0.00015768,-0.00022801,0.00076733,0.
 00055578,-0.00022655,0.00040128,-0.00008445,0.08894830,0.00142981,-0.0
 8253429,-0.01925366,-0.00123150,0.00816733,0.02735968,0.00130524,-0.01
 092977,-0.10004500,-0.00417777,0.08649883,-0.00144554,-0.00889526,-0.0
 2041558,-0.00153627,0.00187463,-0.00284287,0.00027752,-0.00008304,0.00
 102186,-0.06044579,-0.00643371,-0.01796282,0.00144931,0.00000359,0.001
 75858,-0.00095500,0.00002249,-0.00017129,-0.00029033,-0.00013558,-0.00
 025126,-0.00028391,0.00022204,-0.00001480,-0.00216418,-0.00729180,-0.0
 0329836,0.00971209,0.00858434,-0.00114338,-0.01603048,0.00626120,0.018
 92806,0.00090755,-0.00050011,0.00046546,0.00061514,-0.00927038,-0.0118
 5437,0.00003266,0.00088634,0.00069447,-0.00003845,-0.00215320,0.000081
 55,0.00070584,0.00092265,-0.00013606,0.53974594,0.00138166,0.01047081,
 0.01433701,0.00262556,-0.00159559,0.00397083,0.00021405,0.00066562,0.0
 0053297,-0.01171789,-0.11098432,-0.04703096,0.00000466,-0.00005931,-0.
 00005985,0.00018580,0.00032968,-0.00017629,-0.00019839,-0.00009109,0.0
 0016536,0.00000394,-0.00003115,-0.00014130,0.00002178,-0.00075317,-0.0
 0024488,-0.00142440,0.00084125,0.00144040,0.00304435,-0.00227611,-0.00
 537518,0.00006315,0.00009761,0.00004015,-0.00328233,-0.02020610,-0.030
 16235,0.00013442,0.00127453,-0.00076765,-0.00194875,-0.00568860,0.0007
 1953,0.00056267,0.00168891,0.00006413,-0.00172620,0.55448475,-0.004467
 78,-0.01034387,-0.02567680,-0.00208999,0.00221105,-0.00186877,0.000686
 24,-0.00105927,0.00094232,-0.02752632,-0.05000004,-0.16559408,0.000391
 95,-0.00015624,0.00118066,0.00034247,-0.00013811,-0.00036732,0.0001140
 9,0.00005409,-0.00015624,0.00010372,0.00008833,-0.00018121,-0.00032992
 ,0.00122084,0.00019129,-0.00534602,-0.00116339,0.00235427,0.00933004,-
 0.00577285,-0.01406492,0.00096623,-0.00068250,0.00139746,-0.00000894,-
 0.00149888,0.00372942,0.00041784,0.00105537,0.00048273,0.00052403,0.00
 270482,0.00095640,0.00019758,0.00071907,0.00015268,0.01055622,-0.05237
 907,0.49473780,0.00096476,-0.00117733,-0.00101292,0.00019965,0.0003892
 7,-0.00032565,-0.00002185,0.00023126,-0.00005954,-0.00341568,0.0023337
 1,-0.00059749,-0.00019656,-0.00007892,0.00001869,-0.00041255,-0.000142
 93,0.00019441,0.00003424,0.00002740,-0.00001748,0.00000784,-0.00001344
 ,-0.00002365,-0.00002327,0.00033475,0.00012375,0.00003556,-0.00033301,
 -0.00018761,0.00058905,-0.00011116,-0.00005439,0.00046160,-0.00015460,
 0.00041824,-0.00029636,0.00057537,0.00031945,0.00019847,-0.00052513,-0
 .00007622,0.00016285,-0.00011209,0.00024643,-0.00013980,-0.00004424,-0
 .00011962,-0.13117128,0.07853639,-0.09543483,0.13998548,-0.00037202,-0
 .00149904,-0.00279648,-0.00031524,0.00072891,-0.00075918,0.00012664,0.
 00022336,-0.00024559,-0.01010256,0.00918173,-0.01040536,0.00030796,-0.
 00030669,0.00092235,-0.00011747,0.00022289,-0.00025168,0.00002732,0.00
 002387,-0.00009041,0.00006651,0.00010042,-0.00022486,-0.00043438,-0.00
 022139,-0.00027419,0.00023173,0.00031543,-0.00005790,-0.00058442,0.000
 16614,0.00052162,0.00000580,-0.00011581,0.00002178,-0.00064407,0.00129
 336,-0.00033451,0.00021851,-0.00009177,0.00003418,0.00007618,0.0002457
 6,0.00009625,0.00000262,-0.00011013,0.00004120,0.07940105,-0.12536117,
 0.09025469,-0.08770159,0.13242709,0.00019488,-0.00467638,-0.00425511,-
 0.00125232,0.00080739,-0.00122712,0.00022796,-0.00023901,0.00037459,-0
 .01646978,0.01689786,-0.01947357,-0.00015100,0.00020564,-0.00106880,0.
 00014521,0.00003174,0.00041211,-0.00005262,-0.00005433,0.00016025,-0.0
 0005822,-0.00008173,0.00017732,0.00038702,0.00035164,0.00032706,0.0004
 6414,-0.00048008,0.00022558,-0.00068674,0.00054174,0.00022967,-0.00020
 238,-0.00006160,0.00018421,0.00046030,0.00138579,0.00098361,0.00007102
 ,-0.00097570,0.00043158,0.00045638,0.00011492,0.00022914,0.00007993,-0
 .00001779,0.00005001,-0.09398469,0.08872926,-0.15076041,0.10480914,-0.
 09630949,0.16725728,0.00057392,-0.00002898,-0.00010191,0.00024004,-0.0
 0001813,0.00015175,-0.00007720,0.00001322,-0.00001375,0.00291846,0.000
 45300,0.00066580,0.00001810,0.00024098,-0.00063333,0.00003498,-0.00014
 436,0.00032654,0.00000119,-0.00001323,0.00007607,-0.00007285,-0.000074
 35,0.00015590,-0.00011608,0.00047236,0.00044859,-0.00073946,-0.0008365
 4,-0.00003623,0.00288529,0.00025081,-0.00090713,0.00021756,-0.00022561
 ,0.00038997,0.00027950,0.00016419,0.00010189,-0.00006941,-0.00006843,-
 0.00000336,0.00017089,0.00019197,0.00004168,0.00007544,0.00042230,0.00
 004210,-0.24022464,0.03743679,0.09327454,-0.01611180,0.00233612,0.0080
 2446,0.26299383,0.00019859,0.00017601,0.00084784,-0.00007837,-0.000159
 41,0.00015170,-0.00015964,-0.00002414,0.00003108,0.01348642,-0.0053619
 4,-0.00979672,-0.00029343,0.00008224,-0.00032333,0.00009022,-0.0001644
 8,0.00016796,0.00008706,0.00002832,0.00000263,0.00004280,-0.00003409,0
 .00009720,0.00053114,0.00177172,0.00063218,-0.00127622,-0.00180973,-0.
 00003298,0.00111815,-0.00056779,-0.00212530,-0.00034726,0.00030349,-0.
 00003432,0.00027170,0.00112986,0.00047908,0.00009711,0.00006123,-0.000
 11683,-0.00036844,0.00014839,0.00016426,-0.00054352,-0.00035817,-0.000
 00736,0.04119337,-0.05170305,-0.01814902,0.01551674,-0.00351462,-0.008
 27947,-0.04358641,0.05427988,0.00039775,0.00000539,0.00204190,-0.00033
 877,-0.00004607,0.00043541,0.00010289,-0.00008457,-0.00007425,0.023200
 81,-0.00746842,-0.01774043,-0.00071190,0.00017827,-0.00113397,0.000072
 34,-0.00011105,0.00035111,0.00006717,0.00000680,0.00015929,0.00004513,
 -0.00011710,0.00014018,0.00100032,0.00226248,0.00101528,-0.00138742,-0
 .00225629,0.00008422,0.00127513,-0.00154486,-0.00296361,-0.00100299,0.
 00026198,-0.00044352,-0.00006749,0.00137488,0.00072360,-0.00006202,-0.
 00000844,-0.00003202,-0.00033142,0.00018677,0.00005867,-0.00058857,-0.
 00065223,0.00028929,0.09954969,-0.01775777,-0.09125825,-0.01858345,0.0
 0317704,0.00947280,-0.10767757,0.02359773,0.10193063,-0.00022473,-0.00
 029053,0.00047711,0.00011851,0.00027195,0.00003514,0.00014225,0.000176
 84,-0.00048373,-0.00261899,-0.00229027,0.00175457,-0.00058837,0.000090
 56,0.00008405,-0.00021300,0.00022813,-0.00007761,-0.00002541,-0.000005
 37,0.00001651,0.00010204,-0.00002307,-0.00005397,0.00011295,0.00002159
 ,-0.00004086,-0.00006305,-0.00027127,-0.00017035,0.00049091,0.00039182
 ,-0.00009200,-0.00006496,-0.00011367,-0.00005147,0.00038115,0.00029430
 ,-0.00097718,0.00010730,-0.00026135,0.00014981,0.00036185,-0.00030827,
 0.00019414,0.00026333,0.00037305,0.00000737,-0.09886017,-0.10391725,0.
 01829885,0.00914965,0.01747130,-0.00246268,-0.01299776,-0.02598000,0.0
 0504037,0.10442648,0.00084562,0.00057556,0.00061541,0.00029692,0.00020
 388,-0.00000217,-0.00025027,0.00065932,-0.00039579,-0.00687777,-0.0166
 3277,0.00254403,0.00010450,0.00031484,-0.00055060,0.00014565,-0.000345
 20,0.00035188,0.00004195,-0.00000654,-0.00000250,-0.00009312,-0.000063
 07,0.00024068,-0.00001546,0.00131668,0.00068044,-0.00035920,-0.0012907
 5,-0.00020885,0.00010463,-0.00020530,-0.00009766,0.00011284,-0.0000182
 6,0.00012150,0.00000207,-0.00023338,-0.00410298,-0.00001187,0.00052318
 ,-0.00002715,-0.00064922,-0.00095611,0.00001825,-0.00012021,0.00020258
 ,0.00012449,-0.10288243,-0.25110348,0.04303497,-0.00755044,-0.01370833
 ,0.00210960,0.00301430,0.00571629,-0.00100452,0.11414150,0.27505087,0.
 00022343,-0.00056751,0.00140272,0.00033996,0.00010065,0.00021848,-0.00
 005036,0.00050643,-0.00036752,-0.01287592,-0.02641265,0.00604631,0.000
 46516,-0.00012781,0.00052679,0.00000779,0.00016826,-0.00011392,-0.0000
 3655,-0.00001782,0.00000669,-0.00006025,0.00005007,-0.00017391,-0.0002
 6289,0.00051679,0.00003738,0.00013333,-0.00022563,-0.00020633,-0.00074
 335,-0.00042395,0.00060708,0.00009105,0.00008810,-0.00003108,-0.000311
 31,-0.00210661,-0.00539697,0.00022800,-0.00000738,0.00002722,-0.000437
 94,-0.00175114,0.00023106,-0.00011838,0.00018935,-0.00002142,0.0190195
 7,0.04409567,-0.05619704,0.01036272,0.01668056,-0.00373021,0.00567400,
 0.01269367,-0.00305634,-0.02164807,-0.04344903,0.06019102\\-0.00000001
 ,-0.00000074,0.00000130,0.00000018,-0.00000010,0.00000035,-0.00000010,
 0.00000008,0.00000064,0.00000068,-0.00000026,-0.00000189,0.00000078,-0
 .00000096,0.00000051,0.00000059,0.00000055,-0.00000045,-0.00000003,0.0
 0000013,-0.00000018,0.00000017,0.00000025,-0.00000032,-0.00000230,0.00
 000119,0.00000062,0.00000084,-0.00000127,0.00000082,-0.00000075,0.0000
 0043,-0.00000058,-0.00000013,0.00000015,0.00000013,0.00000071,-0.00000
 017,0.00000034,0.,0.00000004,-0.00000025,-0.00000047,-0.00000013,-0.00
 000012,0.00000002,0.00000007,0.00000011,0.00000067,-0.00000005,-0.0000
 0057,-0.00000030,-0.00000065,0.00000058,-0.00000003,0.00000042,0.00000
 008,-0.00000054,0.00000103,-0.00000112\\\@


 NATURE WILL TELL YOU A DIRECT LIE IF SHE CAN.

                                -- CHARLES DARWIN
 Job cpu time:       4 days 17 hours 26 minutes 49.3 seconds.
 Elapsed time:       0 days  2 hours 52 minutes 17.2 seconds.
 File lengths (MBytes):  RWF= 138775 Int=      0 D2E=      0 Chk=     25 Scr=      1
 Normal termination of Gaussian 16 at Tue Jun 25 04:27:09 2019.
