 Entering Gaussian System, Link 0=g16
 Initial command:
 /ichec/packages/gaussian/16b01/l1.exe "/localscratch/346541/Gau-8432.inp" -scrdir="/localscratch/346541/"
 Entering Link 1 = /ichec/packages/gaussian/16b01/l1.exe PID=      9005.
  
 Copyright (c) 1988-2017, Gaussian, Inc.  All Rights Reserved.
  
 This is part of the Gaussian(R) 16 program.  It is based on
 the Gaussian(R) 09 system (copyright 2009, Gaussian, Inc.),
 the Gaussian(R) 03 system (copyright 2003, Gaussian, Inc.),
 the Gaussian(R) 98 system (copyright 1998, Gaussian, Inc.),
 the Gaussian(R) 94 system (copyright 1995, Gaussian, Inc.),
 the Gaussian 92(TM) system (copyright 1992, Gaussian, Inc.),
 the Gaussian 90(TM) system (copyright 1990, Gaussian, Inc.),
 the Gaussian 88(TM) system (copyright 1988, Gaussian, Inc.),
 the Gaussian 86(TM) system (copyright 1986, Carnegie Mellon
 University), and the Gaussian 82(TM) system (copyright 1983,
 Carnegie Mellon University). Gaussian is a federally registered
 trademark of Gaussian, Inc.
  
 This software contains proprietary and confidential information,
 including trade secrets, belonging to Gaussian, Inc.
  
 This software is provided under written license and may be
 used, copied, transmitted, or stored only in accord with that
 written license.
  
 The following legend is applicable only to US Government
 contracts under FAR:
  
                    RESTRICTED RIGHTS LEGEND
  
 Use, reproduction and disclosure by the US Government is
 subject to restrictions as set forth in subparagraphs (a)
 and (c) of the Commercial Computer Software - Restricted
 Rights clause in FAR 52.227-19.
  
 Gaussian, Inc.
 340 Quinnipiac St., Bldg. 40, Wallingford CT 06492
  
  
 ---------------------------------------------------------------
 Warning -- This program may not be used in any manner that
 competes with the business of Gaussian, Inc. or will provide
 assistance to any competitor of Gaussian, Inc.  The licensee
 of this program is prohibited from giving any competitor of
 Gaussian, Inc. access to this program.  By using this program,
 the user acknowledges that Gaussian, Inc. is engaged in the
 business of creating and licensing software in the field of
 computational chemistry and represents and warrants to the
 licensee that it is not a competitor of Gaussian, Inc. and that
 it will not use this program in any manner prohibited above.
 ---------------------------------------------------------------
  

 Cite this work as:
 Gaussian 16, Revision B.01,
 M. J. Frisch, G. W. Trucks, H. B. Schlegel, G. E. Scuseria, 
 M. A. Robb, J. R. Cheeseman, G. Scalmani, V. Barone, 
 G. A. Petersson, H. Nakatsuji, X. Li, M. Caricato, A. V. Marenich, 
 J. Bloino, B. G. Janesko, R. Gomperts, B. Mennucci, H. P. Hratchian, 
 J. V. Ortiz, A. F. Izmaylov, J. L. Sonnenberg, D. Williams-Young, 
 F. Ding, F. Lipparini, F. Egidi, J. Goings, B. Peng, A. Petrone, 
 T. Henderson, D. Ranasinghe, V. G. Zakrzewski, J. Gao, N. Rega, 
 G. Zheng, W. Liang, M. Hada, M. Ehara, K. Toyota, R. Fukuda, 
 J. Hasegawa, M. Ishida, T. Nakajima, Y. Honda, O. Kitao, H. Nakai, 
 T. Vreven, K. Throssell, J. A. Montgomery, Jr., J. E. Peralta, 
 F. Ogliaro, M. J. Bearpark, J. J. Heyd, E. N. Brothers, K. N. Kudin, 
 V. N. Staroverov, T. A. Keith, R. Kobayashi, J. Normand, 
 K. Raghavachari, A. P. Rendell, J. C. Burant, S. S. Iyengar, 
 J. Tomasi, M. Cossi, J. M. Millam, M. Klene, C. Adamo, R. Cammi, 
 J. W. Ochterski, R. L. Martin, K. Morokuma, O. Farkas, 
 J. B. Foresman, and D. J. Fox, Gaussian, Inc., Wallingford CT, 2016.
 
 ******************************************
 Gaussian 16:  ES64L-G16RevB.01 20-Dec-2017
                10-Jun-2019 
 ******************************************
 %mem=80GB
 %nproc=40
 Will use up to   40 processors via shared memory.
 ----------------------------------------------------------------------
 # opt=(calcfc,ts,noeigentest,maxcyc=500) freq=noraman uB2PLYPD3/cc-pvt
 z
 ----------------------------------------------------------------------
 1/5=1,6=500,10=4,11=1,18=20,38=1/1,3;
 2/9=110,12=2,17=6,18=5,40=1/2;
 3/5=16,6=1,11=2,25=1,30=1,71=2,74=-60,116=2,140=1/1,2,3;
 4//1;
 5/5=2,38=5/2;
 8/6=3,8=1,10=1,19=11,30=-1/1;
 9/15=3,16=-3/6;
 11/6=1,8=1,15=11,17=12,24=-1,27=1,28=-2,29=300,32=6,42=3/1,2,10;
 10/6=2,21=1/2;
 8/6=4,8=1,10=1,19=11,30=-1/11,4;
 10/5=1,20=4/2;
 11/12=2,14=11,16=1,17=2,28=-2,42=3,76=2/2,10,12;
 6/7=2,8=2,9=2,10=2/1;
 7/10=1,12=2,25=1,44=2/1,2,3,16;
 1/5=1,6=500,10=4,11=1,18=20/3(2);
 2/9=110/2;
 99//99;
 2/9=110/2;
 3/5=16,6=1,11=2,25=1,30=1,71=1,74=-60,116=2/1,2,3;
 4/5=5,16=3,69=1/1;
 5/5=2,38=5/2;
 8/6=4,10=1/1;
 9/15=2,16=-3/6;
 10/5=1/2;
 7/12=2/1,2,3,16;
 1/5=1,6=500,11=1,18=20/3(-8);
 2/9=110/2;
 6/7=2,8=2,9=2,10=2/1;
 99/9=10/99;
 -------------------
 Title Card Required
 -------------------
 Symbolic Z-matrix:
 Charge =  0 Multiplicity = 2
 C                     1.65846  -0.08724   0.32509 
 H                     1.76755  -0.43749   1.35491 
 C                     0.63726  -0.95034  -0.36443 
 H                     0.33417  -0.61264  -1.35579 
 H                     0.80236  -2.02405  -0.31782 
 C                    -2.54983   0.82467  -0.50426 
 H                    -1.60428   1.17557  -0.92628 
 H                    -3.33573   0.8827   -1.255 
 H                    -2.81095   1.42881   0.36482 
 O                    -2.45776  -0.53878  -0.14886 
 O                    -1.5361   -0.65712   0.87469 
 H                    -0.52275  -0.82446   0.3231 
 C                     3.01709  -0.23627  -0.3713 
 H                     2.95083   0.10805  -1.40512 
 H                     3.77458   0.36172   0.13707 
 H                     3.34804  -1.27444  -0.38016 
 C                     1.22186   1.37413   0.34956 
 H                     0.27368   1.49031   0.87431 
 H                     1.96839   1.99728   0.84202 
 H                     1.09606   1.74608  -0.67063 
 
 Add virtual bond connecting atoms H12        and O11        Dist= 2.20D+00.
 Add virtual bond connecting atoms H12        and C3         Dist= 2.56D+00.

 GradGradGradGradGradGradGradGradGradGradGradGradGradGradGradGradGradGrad
 Berny optimization.
 Initialization pass.
                           ----------------------------
                           !    Initial Parameters    !
                           ! (Angstroms and Degrees)  !
 --------------------------                            --------------------------
 ! Name  Definition              Value          Derivative Info.                !
 --------------------------------------------------------------------------------
 ! R1    R(1,2)                  1.0932         calculate D2E/DX2 analytically  !
 ! R2    R(1,3)                  1.5044         calculate D2E/DX2 analytically  !
 ! R3    R(1,13)                 1.534          calculate D2E/DX2 analytically  !
 ! R4    R(1,17)                 1.5254         calculate D2E/DX2 analytically  !
 ! R5    R(3,4)                  1.0903         calculate D2E/DX2 analytically  !
 ! R6    R(3,5)                  1.0873         calculate D2E/DX2 analytically  !
 ! R7    R(3,12)                 1.3543         calculate D2E/DX2 analytically  !
 ! R8    R(6,7)                  1.0933         calculate D2E/DX2 analytically  !
 ! R9    R(6,8)                  1.0884         calculate D2E/DX2 analytically  !
 ! R10   R(6,9)                  1.0902         calculate D2E/DX2 analytically  !
 ! R11   R(6,10)                 1.412          calculate D2E/DX2 analytically  !
 ! R12   R(10,11)                1.3824         calculate D2E/DX2 analytically  !
 ! R13   R(11,12)                1.1658         calculate D2E/DX2 analytically  !
 ! R14   R(13,14)                1.0917         calculate D2E/DX2 analytically  !
 ! R15   R(13,15)                1.0908         calculate D2E/DX2 analytically  !
 ! R16   R(13,16)                1.0897         calculate D2E/DX2 analytically  !
 ! R17   R(17,18)                1.0899         calculate D2E/DX2 analytically  !
 ! R18   R(17,19)                1.09           calculate D2E/DX2 analytically  !
 ! R19   R(17,20)                1.0931         calculate D2E/DX2 analytically  !
 ! A1    A(2,1,3)              108.4019         calculate D2E/DX2 analytically  !
 ! A2    A(2,1,13)             107.9474         calculate D2E/DX2 analytically  !
 ! A3    A(2,1,17)             108.6867         calculate D2E/DX2 analytically  !
 ! A4    A(3,1,13)             109.7188         calculate D2E/DX2 analytically  !
 ! A5    A(3,1,17)             111.2663         calculate D2E/DX2 analytically  !
 ! A6    A(13,1,17)            110.724          calculate D2E/DX2 analytically  !
 ! A7    A(1,3,4)              115.3252         calculate D2E/DX2 analytically  !
 ! A8    A(1,3,5)              116.3477         calculate D2E/DX2 analytically  !
 ! A9    A(1,3,12)             107.1822         calculate D2E/DX2 analytically  !
 ! A10   A(4,3,5)              112.7708         calculate D2E/DX2 analytically  !
 ! A11   A(4,3,12)             101.2273         calculate D2E/DX2 analytically  !
 ! A12   A(5,3,12)             101.5415         calculate D2E/DX2 analytically  !
 ! A13   A(7,6,8)              109.9448         calculate D2E/DX2 analytically  !
 ! A14   A(7,6,9)              109.6946         calculate D2E/DX2 analytically  !
 ! A15   A(7,6,10)             110.5293         calculate D2E/DX2 analytically  !
 ! A16   A(8,6,9)              110.3268         calculate D2E/DX2 analytically  !
 ! A17   A(8,6,10)             105.7941         calculate D2E/DX2 analytically  !
 ! A18   A(9,6,10)             110.4927         calculate D2E/DX2 analytically  !
 ! A19   A(6,10,11)            108.2088         calculate D2E/DX2 analytically  !
 ! A20   A(10,11,12)           103.9738         calculate D2E/DX2 analytically  !
 ! A21   A(1,13,14)            110.2138         calculate D2E/DX2 analytically  !
 ! A22   A(1,13,15)            110.5011         calculate D2E/DX2 analytically  !
 ! A23   A(1,13,16)            111.4228         calculate D2E/DX2 analytically  !
 ! A24   A(14,13,15)           108.096          calculate D2E/DX2 analytically  !
 ! A25   A(14,13,16)           108.1335         calculate D2E/DX2 analytically  !
 ! A26   A(15,13,16)           108.3711         calculate D2E/DX2 analytically  !
 ! A27   A(1,17,18)            111.0295         calculate D2E/DX2 analytically  !
 ! A28   A(1,17,19)            111.0336         calculate D2E/DX2 analytically  !
 ! A29   A(1,17,20)            110.1169         calculate D2E/DX2 analytically  !
 ! A30   A(18,17,19)           108.5029         calculate D2E/DX2 analytically  !
 ! A31   A(18,17,20)           108.2373         calculate D2E/DX2 analytically  !
 ! A32   A(19,17,20)           107.8145         calculate D2E/DX2 analytically  !
 ! A33   L(3,12,11,7,-1)       176.4259         calculate D2E/DX2 analytically  !
 ! A34   L(3,12,11,7,-2)       180.2755         calculate D2E/DX2 analytically  !
 ! D1    D(2,1,3,4)            171.6097         calculate D2E/DX2 analytically  !
 ! D2    D(2,1,3,5)            -52.9749         calculate D2E/DX2 analytically  !
 ! D3    D(2,1,3,12)            59.7833         calculate D2E/DX2 analytically  !
 ! D4    D(13,1,3,4)           -70.7303         calculate D2E/DX2 analytically  !
 ! D5    D(13,1,3,5)            64.6851         calculate D2E/DX2 analytically  !
 ! D6    D(13,1,3,12)          177.4433         calculate D2E/DX2 analytically  !
 ! D7    D(17,1,3,4)            52.1495         calculate D2E/DX2 analytically  !
 ! D8    D(17,1,3,5)          -172.4352         calculate D2E/DX2 analytically  !
 ! D9    D(17,1,3,12)          -59.6769         calculate D2E/DX2 analytically  !
 ! D10   D(2,1,13,14)         -179.7752         calculate D2E/DX2 analytically  !
 ! D11   D(2,1,13,15)          -60.3655         calculate D2E/DX2 analytically  !
 ! D12   D(2,1,13,16)           60.1758         calculate D2E/DX2 analytically  !
 ! D13   D(3,1,13,14)           62.2818         calculate D2E/DX2 analytically  !
 ! D14   D(3,1,13,15)         -178.3085         calculate D2E/DX2 analytically  !
 ! D15   D(3,1,13,16)          -57.7672         calculate D2E/DX2 analytically  !
 ! D16   D(17,1,13,14)         -60.918          calculate D2E/DX2 analytically  !
 ! D17   D(17,1,13,15)          58.4917         calculate D2E/DX2 analytically  !
 ! D18   D(17,1,13,16)         179.033          calculate D2E/DX2 analytically  !
 ! D19   D(2,1,17,18)          -59.5909         calculate D2E/DX2 analytically  !
 ! D20   D(2,1,17,19)           61.2134         calculate D2E/DX2 analytically  !
 ! D21   D(2,1,17,20)         -179.4512         calculate D2E/DX2 analytically  !
 ! D22   D(3,1,17,18)           59.6996         calculate D2E/DX2 analytically  !
 ! D23   D(3,1,17,19)         -179.4961         calculate D2E/DX2 analytically  !
 ! D24   D(3,1,17,20)          -60.1607         calculate D2E/DX2 analytically  !
 ! D25   D(13,1,17,18)        -177.9998         calculate D2E/DX2 analytically  !
 ! D26   D(13,1,17,19)         -57.1955         calculate D2E/DX2 analytically  !
 ! D27   D(13,1,17,20)          62.1399         calculate D2E/DX2 analytically  !
 ! D28   D(1,3,11,10)          136.6479         calculate D2E/DX2 analytically  !
 ! D29   D(4,3,11,10)           16.146          calculate D2E/DX2 analytically  !
 ! D30   D(5,3,11,10)         -100.1706         calculate D2E/DX2 analytically  !
 ! D31   D(7,6,10,11)           65.2168         calculate D2E/DX2 analytically  !
 ! D32   D(8,6,10,11)         -175.8061         calculate D2E/DX2 analytically  !
 ! D33   D(9,6,10,11)          -56.3926         calculate D2E/DX2 analytically  !
 ! D34   D(6,10,11,12)         -90.0458         calculate D2E/DX2 analytically  !
 --------------------------------------------------------------------------------
 Trust Radius=3.00D-01 FncErr=1.00D-07 GrdErr=1.00D-07 EigMax=2.50D+02 EigMin=1.00D-04
 Number of steps in this run=    120 maximum allowed number of steps=    120.
 Search for a saddle point of order  1.
 GradGradGradGradGradGradGradGradGradGradGradGradGradGradGradGradGradGrad

                          Input orientation:                          
 ---------------------------------------------------------------------
 Center     Atomic      Atomic             Coordinates (Angstroms)
 Number     Number       Type             X           Y           Z
 ---------------------------------------------------------------------
      1          6           0        1.658457   -0.087236    0.325087
      2          1           0        1.767550   -0.437493    1.354909
      3          6           0        0.637259   -0.950340   -0.364432
      4          1           0        0.334168   -0.612642   -1.355791
      5          1           0        0.802356   -2.024046   -0.317822
      6          6           0       -2.549833    0.824665   -0.504256
      7          1           0       -1.604283    1.175573   -0.926276
      8          1           0       -3.335726    0.882703   -1.254998
      9          1           0       -2.810954    1.428809    0.364815
     10          8           0       -2.457764   -0.538780   -0.148864
     11          8           0       -1.536099   -0.657116    0.874693
     12          1           0       -0.522752   -0.824456    0.323101
     13          6           0        3.017088   -0.236266   -0.371303
     14          1           0        2.950827    0.108045   -1.405124
     15          1           0        3.774580    0.361717    0.137070
     16          1           0        3.348041   -1.274443   -0.380155
     17          6           0        1.221857    1.374132    0.349561
     18          1           0        0.273683    1.490312    0.874312
     19          1           0        1.968386    1.997283    0.842024
     20          1           0        1.096063    1.746078   -0.670630
 ---------------------------------------------------------------------
                    Distance matrix (angstroms):
                    1          2          3          4          5
     1  C    0.000000
     2  H    1.093213   0.000000
     3  C    1.504404   2.120543   0.000000
     4  H    2.203439   3.071344   1.090274   0.000000
     5  H    2.213024   2.499356   1.087324   1.813461   0.000000
     6  C    4.385097   4.867169   3.650719   3.332930   4.403077
     7  H    3.715652   4.378932   3.140014   2.672038   4.049653
     8  H    5.327224   5.882003   4.465172   3.964131   5.143074
     9  H    4.719704   5.042427   4.252332   4.125506   5.044225
    10  O    4.167949   4.486075   3.129699   3.042534   3.586495
    11  O    3.291203   3.345585   2.518908   2.911174   2.959554
    12  H    2.302427   2.541624   1.354317   1.896801   1.898871
    13  C    1.533965   2.140478   2.484660   2.882522   2.846762
    14  H    2.168406   3.052137   2.748784   2.714540   3.216204
    15  H    2.171379   2.479927   3.437409   3.874848   3.838347
    16  H    2.182091   2.491763   2.730134   3.236244   2.654487
    17  C    1.525390   2.142543   2.500942   2.764686   3.488409
    18  H    2.169771   2.485768   2.761061   3.065850   3.748518
    19  H    2.169908   2.496301   3.451944   3.783222   4.344647
    20  H    2.160736   3.053144   2.752259   2.571671   3.797969
                    6          7          8          9         10
     6  C    0.000000
     7  H    1.093299   0.000000
     8  H    1.088398   1.786540   0.000000
     9  H    1.090164   1.785245   1.788131   0.000000
    10  O    1.412007   2.066835   2.003737   2.063981   0.000000
    11  O    2.263809   2.570387   3.185166   2.497261   1.382439
    12  H    2.741018   2.594372   3.649330   3.211668   2.012122
    13  C    5.668674   4.863985   6.510857   6.105769   5.487713
    14  H    5.619819   4.702971   6.335880   6.170512   5.590119
    15  H    6.373682   5.543035   7.264002   6.675314   6.303552
    16  H    6.261515   5.552147   7.077526   6.767257   5.856797
    17  C    3.905965   3.107129   4.856714   4.033210   4.176993
    18  H    3.211819   2.620674   4.234499   3.127036   3.553154
    19  H    4.858169   4.070142   5.811488   4.836629   5.196564
    20  H    3.764205   2.771768   4.552764   4.054330   4.257053
                   11         12         13         14         15
    11  O    0.000000
    12  H    1.165817   0.000000
    13  C    4.739318   3.654946   0.000000
    14  H    5.090731   3.990247   1.091662   0.000000
    15  H    5.457602   4.461914   1.090789   1.766715   0.000000
    16  H    5.080409   3.959810   1.089688   1.766243   1.768185
    17  C    3.465264   2.806804   2.517118   2.769699   2.754366
    18  H    2.808337   2.509242   3.472593   3.778041   3.751471
    19  H    4.396398   3.799640   2.749669   3.095817   2.536607
    20  H    3.884796   3.196202   2.776621   2.581237   3.121424
                   16         17         18         19         20
    16  H    0.000000
    17  C    3.473916   0.000000
    18  H    4.320791   1.089906   0.000000
    19  H    3.755178   1.090020   1.769203   0.000000
    20  H    3.778800   1.093141   1.768777   1.764135   0.000000
 Stoichiometry    C5H13O2(2)
 Framework group  C1[X(C5H13O2)]
 Deg. of freedom    54
 Full point group                 C1      NOp   1
 Largest Abelian subgroup         C1      NOp   1
 Largest concise Abelian subgroup C1      NOp   1
                         Standard orientation:                         
 ---------------------------------------------------------------------
 Center     Atomic      Atomic             Coordinates (Angstroms)
 Number     Number       Type             X           Y           Z
 ---------------------------------------------------------------------
      1          6           0       -1.658457   -0.087236   -0.325087
      2          1           0       -1.767550   -0.437493   -1.354909
      3          6           0       -0.637259   -0.950340    0.364432
      4          1           0       -0.334168   -0.612642    1.355791
      5          1           0       -0.802356   -2.024046    0.317822
      6          6           0        2.549833    0.824665    0.504256
      7          1           0        1.604283    1.175573    0.926276
      8          1           0        3.335726    0.882703    1.254998
      9          1           0        2.810954    1.428809   -0.364815
     10          8           0        2.457764   -0.538780    0.148864
     11          8           0        1.536099   -0.657116   -0.874693
     12          1           0        0.522752   -0.824456   -0.323101
     13          6           0       -3.017088   -0.236266    0.371303
     14          1           0       -2.950827    0.108045    1.405124
     15          1           0       -3.774580    0.361717   -0.137070
     16          1           0       -3.348041   -1.274443    0.380155
     17          6           0       -1.221857    1.374132   -0.349561
     18          1           0       -0.273683    1.490312   -0.874312
     19          1           0       -1.968386    1.997283   -0.842024
     20          1           0       -1.096063    1.746078    0.670630
 ---------------------------------------------------------------------
 Rotational constants (GHZ):           4.7424222           1.0647314           0.9775779
 Standard basis: CC-pVTZ (5D, 7F)
 There are   440 symmetry adapted cartesian basis functions of A   symmetry.
 There are   392 symmetry adapted basis functions of A   symmetry.
   392 basis functions,   585 primitive gaussians,   440 cartesian basis functions
    30 alpha electrons       29 beta electrons
       nuclear repulsion energy       326.2250697843 Hartrees.
 NAtoms=   20 NActive=   20 NUniq=   20 SFac= 1.00D+00 NAtFMM=   60 NAOKFM=F Big=F
 Integral buffers will be    131072 words long.
 Raffenetti 2 integral format.
 Two-electron integral symmetry is turned on.
 Nuclear repulsion after empirical dispersion term =      326.2142430776 Hartrees.
 One-electron integrals computed using PRISM.
 NBasis=   392 RedAO= T EigKep=  6.53D-04  NBF=   392
 NBsUse=   392 1.00D-06 EigRej= -1.00D+00 NBFU=   392
 ExpMin= 1.03D-01 ExpMax= 1.53D+04 ExpMxC= 5.22D+02 IAcc=3 IRadAn=         5 AccDes= 0.00D+00
 Harris functional with IExCor=  419 and IRadAn=       5 diagonalized for initial guess.
 HarFok:  IExCor=  419 AccDes= 0.00D+00 IRadAn=         5 IDoV= 1 UseB2=F ITyADJ=14
 ICtDFT=  3500011 ScaDFX=  1.000000  1.000000  1.000000  1.000000
 FoFCou: FMM=F IPFlag=           0 FMFlag=      100000 FMFlg1=           0
         NFxFlg=           0 DoJE=T BraDBF=F KetDBF=T FulRan=T
         wScrn=  0.000000 ICntrl=       500 IOpCl=  0 I1Cent=   200000004 NGrid=           0
         NMat0=    1 NMatS0=      1 NMatT0=    0 NMatD0=    1 NMtDS0=    0 NMtDT0=    0
 Petite list used in FoFCou.
 Initial guess <Sx>= 0.0000 <Sy>= 0.0000 <Sz>= 0.5000 <S**2>= 0.7500 S= 0.5000
 Requested convergence on RMS density matrix=1.00D-08 within 128 cycles.
 Requested convergence on MAX density matrix=1.00D-06.
 Requested convergence on             energy=1.00D-06.
 No special actions if energy rises.
 Integral accuracy reduced to 1.0D-05 until final iterations.
 Initial convergence to 1.0D-05 achieved.  Increase integral accuracy.
 SCF Done:  E(UB2PLYPD3) =  -348.025016274     A.U. after   19 cycles
            NFock= 19  Conv=0.25D-08     -V/T= 2.0042
 <Sx>= 0.0000 <Sy>= 0.0000 <Sz>= 0.5000 <S**2>= 0.7682 S= 0.5090
 <L.S>=  0.00000000000    
 Annihilation of the first spin contaminant:
 S**2 before annihilation     0.7682,   after     0.7501
 DoSCS=T DFT=T ScalE2(SS,OS)=  0.270000  0.270000
 ExpMin= 1.03D-01 ExpMax= 1.53D+04 ExpMxC= 5.22D+02 IAcc=3 IRadAn=         5 AccDes= 0.00D+00
 HarFok:  IExCor=  205 AccDes= 0.00D+00 IRadAn=         5 IDoV=-2 UseB2=F ITyADJ=14
 ICtDFT= 12500011 ScaDFX=  1.000000  1.000000  1.000000  1.000000
 Range of M.O.s used for correlation:     8   392
 NBasis=   392 NAE=    30 NBE=    29 NFC=     7 NFV=     0
 NROrb=    385 NOA=    23 NOB=    22 NVA=   362 NVB=   363

 **** Warning!!: The largest alpha MO coefficient is  0.11760925D+02


 **** Warning!!: The largest beta MO coefficient is  0.11760800D+02

 DoSCS=T DFT=T ScalE2(SS,OS)=  0.270000  0.270000
 Disk-based method using ON**2 memory for 23 occupieds at a time.
 Permanent disk used for amplitudes=   169421973 words.
 Estimated scratch disk usage=  3290957680 words.
 Actual    scratch disk usage=  3182509936 words.
 JobTyp=2 Pass  1:  I=   8 to  30 NPSUse= 40 ParTrn=T ParDer=T DoDerP=T.
 (rs|ai) integrals will be sorted in core.
 Actual    scratch disk usage=  3182509936 words.
 JobTyp=3 Pass  1:  I=   8 to  29 NPSUse= 40 ParTrn=T ParDer=T DoDerP=T.
 (rs|ai) integrals will be sorted in core.
 Spin components of T(2) and E(2):
     alpha-alpha T2 =       0.7452181714D-01 E2=     -0.5399478694D-01
     alpha-beta  T2 =       0.4560530654D+00 E2=     -0.3428074117D+00
     beta-beta   T2 =       0.7932451975D-01 E2=     -0.5250541182D-01
 (S**2,0)=  0.76817D+00           (S**2,1)=  0.74253D+00
 Scaling Projection term by:   0.270000
 E(PUHF)=      -0.34803122174D+03        E(PMP2)=      -0.34847482253D+03
 E2(B2PLYPD3) =    -0.4493076105D+00 E(B2PLYPD3) =    -0.34847432388429D+03
 G2DrvN: will do    21 centers at a time, making    1 passes.
 Calling FoFCou, ICntrl=  3107 FMM=F I1Cent=   0 AccDes= 0.00D+00.
 End of G2Drv F.D. properties file   721 does not exist.
 End of G2Drv F.D. properties file   722 does not exist.
 End of G2Drv F.D. properties file   788 does not exist.
          IDoAtm=11111111111111111111
          Differentiating once with respect to electric field.
                with respect to dipole field.
          Differentiating once with respect to nuclear coordinates.
 CalDSu exits because no D1Ps are significant.
          There are    63 degrees of freedom in the 1st order CPHF.  IDoFFX=6 NUNeed=    63.
     60 vectors produced by pass  0 Test12= 3.39D-14 1.59D-09 XBig12= 9.19D+01 5.62D+00.
 AX will form    60 AO Fock derivatives at one time.
     60 vectors produced by pass  1 Test12= 3.39D-14 1.59D-09 XBig12= 5.84D+00 2.30D-01.
     60 vectors produced by pass  2 Test12= 3.39D-14 1.59D-09 XBig12= 3.09D-01 7.58D-02.
     60 vectors produced by pass  3 Test12= 3.39D-14 1.59D-09 XBig12= 4.26D-03 8.69D-03.
     60 vectors produced by pass  4 Test12= 3.39D-14 1.59D-09 XBig12= 4.23D-05 5.62D-04.
     60 vectors produced by pass  5 Test12= 3.39D-14 1.59D-09 XBig12= 4.69D-07 7.36D-05.
     58 vectors produced by pass  6 Test12= 3.39D-14 1.59D-09 XBig12= 3.97D-09 4.57D-06.
     23 vectors produced by pass  7 Test12= 3.39D-14 1.59D-09 XBig12= 2.30D-11 3.37D-07.
      3 vectors produced by pass  8 Test12= 3.39D-14 1.59D-09 XBig12= 1.45D-13 2.96D-08.
      2 vectors produced by pass  9 Test12= 3.39D-14 1.59D-09 XBig12= 1.31D-15 2.95D-09.
 InvSVY:  IOpt=1 It=  1 EMax= 4.44D-15
 Solved reduced A of dimension   446 with    63 vectors.
 End of Minotr F.D. properties file   721 does not exist.
 End of Minotr F.D. properties file   722 does not exist.
 End of Minotr F.D. properties file   788 does not exist.
 MDV= 10737418240.
 DoSCS=T DFT=T ScalE2(SS,OS)=  0.270000  0.270000
 Form MO integral derivatives with frozen-active canonical formalism.
 Discarding MO integrals.
 Reordered first order wavefunction length =    681858357
 In DefCFB: NBatch=  1 ICI= 30 ICA=363 LFMax= 73
            Large arrays: LIAPS= 14755319040 LIARS=  2347884000 words.
 In DefCFB: NBatch=  1 ICI= 30 ICA=363 LFMax= 73
            Large arrays: LIAPS= 14755319040 LIARS=  2347884000 words.
 Semi-Direct transformation.
 ModeAB=           4 MOrb=            30 LenV=   10732969045
 LASXX=    860785125 LTotXX=   860785125 LenRXX=  1733127225
 LTotAB=   872342100 MaxLAS=  1006726560 LenRXY=           0
 NonZer=  2593912350 LenScr=  3906126848 LnRSAI=  1006726560
 LnScr1=  1516012544 LExtra=           0 Total=   8161993177
 MaxDsk=          -1 SrtSym=           T ITran=            4
 JobTyp=1 Pass  1:  I=   1 to  30.
 (rs|ai) integrals will be sorted in core.
 ModeAB=           4 MOrb=            29 LenV=   10732969045
 LASXX=    833505211 LTotXX=   833505211 LenRXX=  1553741497
 LTotAB=   720236286 MaxLAS=   973169008 LenRXY=           0
 NonZer=  2387246708 LenScr=  3594912768 LnRSAI=   973169008
 LnScr1=  1465478144 LExtra=           0 Total=   7587301417
 MaxDsk=          -1 SrtSym=           T ITran=            4
 JobTyp=2 Pass  1:  I=   1 to  29.
 (rs|ai) integrals will be sorted in core.
 SymMOI:  orbitals are not symmetric.
 DoSCS=T DFT=T ScalE2(SS,OS)=  0.270000  0.270000
 Spin components of T(2) and E(2):
     alpha-alpha T2 =       0.7452181714D-01 E2=     -0.5399478694D-01
     alpha-beta  T2 =       0.4560530654D+00 E2=     -0.3428074117D+00
     beta-beta   T2 =       0.7932451975D-01 E2=     -0.5250541182D-01
 E2(B2PLYPD3) =    -0.4493076105D+00 E(B2PLYPD3) =    -0.34847432388429D+03
 (S**2,0)=  0.76817D+00           (S**2,1)=  0.74253D+00
 Scaling Projection term by:   0.270000
 E(PUHF)=      -0.34803122174D+03        E(PMP2)=      -0.34847482253D+03
          IDoAtm=11111111111111111111
          Differentiating once with respect to electric field.
                with respect to dipole field.
          Differentiating once with respect to nuclear coordinates.
          There are     1 degrees of freedom in the 1st order CPHF.  IDoFFX=0 NUNeed=     1.
 LinEq1:  Iter=  0 NonCon=     1 RMS=7.69D-04 Max=6.39D-02 NDo=     1
 AX will form     1 AO Fock derivatives at one time.
 LinEq1:  Iter=  1 NonCon=     1 RMS=2.53D-04 Max=7.59D-03 NDo=     1
 LinEq1:  Iter=  2 NonCon=     1 RMS=1.43D-04 Max=9.72D-03 NDo=     1
 LinEq1:  Iter=  3 NonCon=     1 RMS=5.35D-05 Max=9.09D-04 NDo=     1
 LinEq1:  Iter=  4 NonCon=     1 RMS=2.79D-05 Max=8.89D-04 NDo=     1
 LinEq1:  Iter=  5 NonCon=     1 RMS=1.65D-05 Max=4.33D-04 NDo=     1
 LinEq1:  Iter=  6 NonCon=     1 RMS=1.11D-05 Max=3.67D-04 NDo=     1
 LinEq1:  Iter=  7 NonCon=     1 RMS=4.66D-06 Max=1.13D-04 NDo=     1
 LinEq1:  Iter=  8 NonCon=     1 RMS=2.22D-06 Max=6.34D-05 NDo=     1
 LinEq1:  Iter=  9 NonCon=     1 RMS=9.29D-07 Max=2.74D-05 NDo=     1
 LinEq1:  Iter= 10 NonCon=     1 RMS=3.65D-07 Max=1.22D-05 NDo=     1
 LinEq1:  Iter= 11 NonCon=     1 RMS=1.39D-07 Max=4.17D-06 NDo=     1
 LinEq1:  Iter= 12 NonCon=     1 RMS=4.90D-08 Max=1.55D-06 NDo=     1
 LinEq1:  Iter= 13 NonCon=     1 RMS=2.24D-08 Max=9.18D-07 NDo=     1
 LinEq1:  Iter= 14 NonCon=     1 RMS=9.02D-09 Max=4.86D-07 NDo=     1
 LinEq1:  Iter= 15 NonCon=     1 RMS=3.18D-09 Max=1.65D-07 NDo=     1
 LinEq1:  Iter= 16 NonCon=     1 RMS=1.24D-09 Max=6.42D-08 NDo=     1
 LinEq1:  Iter= 17 NonCon=     1 RMS=5.69D-10 Max=1.86D-08 NDo=     1
 LinEq1:  Iter= 18 NonCon=     1 RMS=2.23D-10 Max=5.57D-09 NDo=     1
 LinEq1:  Iter= 19 NonCon=     1 RMS=6.07D-11 Max=1.51D-09 NDo=     1
 LinEq1:  Iter= 20 NonCon=     0 RMS=1.52D-11 Max=2.60D-10 NDo=     1
 Linear equations converged to 1.000D-10 1.000D-09 after    20 iterations.
 End of Minotr F.D. properties file   721 does not exist.
 End of Minotr F.D. properties file   722 does not exist.
 End of Minotr F.D. properties file   788 does not exist.
 Symmetrizing basis deriv contribution to polar:
 IMax=3 JMax=2 DiffMx= 0.00D+00
 G2DrvN: will do    21 centers at a time, making    1 passes.
 Calling FoFCou, ICntrl=  3107 FMM=F I1Cent=   0 AccDes= 0.00D+00.
 End of G2Drv F.D. properties file   721 does not exist.
 End of G2Drv F.D. properties file   722 does not exist.
 End of G2Drv F.D. properties file   788 does not exist.
 DoSCS=T DFT=T ScalE2(SS,OS)=  0.270000  0.270000
 R2 and R3 integrals will be kept in memory, NReq=  9455860260.
 DD1Dir will call FoFMem   1 times, MxPair=      2582
 NAB=   870 NAA=   435 NBB=   406.
 Discarding MO integrals.

 **********************************************************************

            Population analysis using the SCF Density.

 **********************************************************************

 Orbital symmetries:
 Alpha Orbitals:
       Occupied  (A) (A) (A) (A) (A) (A) (A) (A) (A) (A) (A) (A)
                 (A) (A) (A) (A) (A) (A) (A) (A) (A) (A) (A) (A)
                 (A) (A) (A) (A) (A) (A)
       Virtual   (A) (A) (A) (A) (A) (A) (A) (A) (A) (A) (A) (A)
                 (A) (A) (A) (A) (A) (A) (A) (A) (A) (A) (A) (A)
                 (A) (A) (A) (A) (A) (A) (A) (A) (A) (A) (A) (A)
                 (A) (A) (A) (A) (A) (A) (A) (A) (A) (A) (A) (A)
                 (A) (A) (A) (A) (A) (A) (A) (A) (A) (A) (A) (A)
                 (A) (A) (A) (A) (A) (A) (A) (A) (A) (A) (A) (A)
                 (A) (A) (A) (A) (A) (A) (A) (A) (A) (A) (A) (A)
                 (A) (A) (A) (A) (A) (A) (A) (A) (A) (A) (A) (A)
                 (A) (A) (A) (A) (A) (A) (A) (A) (A) (A) (A) (A)
                 (A) (A) (A) (A) (A) (A) (A) (A) (A) (A) (A) (A)
                 (A) (A) (A) (A) (A) (A) (A) (A) (A) (A) (A) (A)
                 (A) (A) (A) (A) (A) (A) (A) (A) (A) (A) (A) (A)
                 (A) (A) (A) (A) (A) (A) (A) (A) (A) (A) (A) (A)
                 (A) (A) (A) (A) (A) (A) (A) (A) (A) (A) (A) (A)
                 (A) (A) (A) (A) (A) (A) (A) (A) (A) (A) (A) (A)
                 (A) (A) (A) (A) (A) (A) (A) (A) (A) (A) (A) (A)
                 (A) (A) (A) (A) (A) (A) (A) (A) (A) (A) (A) (A)
                 (A) (A) (A) (A) (A) (A) (A) (A) (A) (A) (A) (A)
                 (A) (A) (A) (A) (A) (A) (A) (A) (A) (A) (A) (A)
                 (A) (A) (A) (A) (A) (A) (A) (A) (A) (A) (A) (A)
                 (A) (A) (A) (A) (A) (A) (A) (A) (A) (A) (A) (A)
                 (A) (A) (A) (A) (A) (A) (A) (A) (A) (A) (A) (A)
                 (A) (A) (A) (A) (A) (A) (A) (A) (A) (A) (A) (A)
                 (A) (A) (A) (A) (A) (A) (A) (A) (A) (A) (A) (A)
                 (A) (A) (A) (A) (A) (A) (A) (A) (A) (A) (A) (A)
                 (A) (A) (A) (A) (A) (A) (A) (A) (A) (A) (A) (A)
                 (A) (A) (A) (A) (A) (A) (A) (A) (A) (A) (A) (A)
                 (A) (A) (A) (A) (A) (A) (A) (A) (A) (A) (A) (A)
                 (A) (A) (A) (A) (A) (A) (A) (A) (A) (A) (A) (A)
                 (A) (A) (A) (A) (A) (A) (A) (A) (A) (A) (A) (A)
                 (A) (A)
 Beta  Orbitals:
       Occupied  (A) (A) (A) (A) (A) (A) (A) (A) (A) (A) (A) (A)
                 (A) (A) (A) (A) (A) (A) (A) (A) (A) (A) (A) (A)
                 (A) (A) (A) (A) (A)
       Virtual   (A) (A) (A) (A) (A) (A) (A) (A) (A) (A) (A) (A)
                 (A) (A) (A) (A) (A) (A) (A) (A) (A) (A) (A) (A)
                 (A) (A) (A) (A) (A) (A) (A) (A) (A) (A) (A) (A)
                 (A) (A) (A) (A) (A) (A) (A) (A) (A) (A) (A) (A)
                 (A) (A) (A) (A) (A) (A) (A) (A) (A) (A) (A) (A)
                 (A) (A) (A) (A) (A) (A) (A) (A) (A) (A) (A) (A)
                 (A) (A) (A) (A) (A) (A) (A) (A) (A) (A) (A) (A)
                 (A) (A) (A) (A) (A) (A) (A) (A) (A) (A) (A) (A)
                 (A) (A) (A) (A) (A) (A) (A) (A) (A) (A) (A) (A)
                 (A) (A) (A) (A) (A) (A) (A) (A) (A) (A) (A) (A)
                 (A) (A) (A) (A) (A) (A) (A) (A) (A) (A) (A) (A)
                 (A) (A) (A) (A) (A) (A) (A) (A) (A) (A) (A) (A)
                 (A) (A) (A) (A) (A) (A) (A) (A) (A) (A) (A) (A)
                 (A) (A) (A) (A) (A) (A) (A) (A) (A) (A) (A) (A)
                 (A) (A) (A) (A) (A) (A) (A) (A) (A) (A) (A) (A)
                 (A) (A) (A) (A) (A) (A) (A) (A) (A) (A) (A) (A)
                 (A) (A) (A) (A) (A) (A) (A) (A) (A) (A) (A) (A)
                 (A) (A) (A) (A) (A) (A) (A) (A) (A) (A) (A) (A)
                 (A) (A) (A) (A) (A) (A) (A) (A) (A) (A) (A) (A)
                 (A) (A) (A) (A) (A) (A) (A) (A) (A) (A) (A) (A)
                 (A) (A) (A) (A) (A) (A) (A) (A) (A) (A) (A) (A)
                 (A) (A) (A) (A) (A) (A) (A) (A) (A) (A) (A) (A)
                 (A) (A) (A) (A) (A) (A) (A) (A) (A) (A) (A) (A)
                 (A) (A) (A) (A) (A) (A) (A) (A) (A) (A) (A) (A)
                 (A) (A) (A) (A) (A) (A) (A) (A) (A) (A) (A) (A)
                 (A) (A) (A) (A) (A) (A) (A) (A) (A) (A) (A) (A)
                 (A) (A) (A) (A) (A) (A) (A) (A) (A) (A) (A) (A)
                 (A) (A) (A) (A) (A) (A) (A) (A) (A) (A) (A) (A)
                 (A) (A) (A) (A) (A) (A) (A) (A) (A) (A) (A) (A)
                 (A) (A) (A) (A) (A) (A) (A) (A) (A) (A) (A) (A)
                 (A) (A) (A)
 The electronic state is 2-A.
 Alpha  occ. eigenvalues --  -19.78510 -19.78414 -10.65938 -10.63287 -10.62794
 Alpha  occ. eigenvalues --  -10.60991 -10.60467  -1.28803  -1.01885  -0.93853
 Alpha  occ. eigenvalues --   -0.80679  -0.79639  -0.77321  -0.66379  -0.61280
 Alpha  occ. eigenvalues --   -0.56222  -0.55130  -0.54860  -0.51432  -0.50689
 Alpha  occ. eigenvalues --   -0.48740  -0.46397  -0.45604  -0.44182  -0.41888
 Alpha  occ. eigenvalues --   -0.40675  -0.39732  -0.36688  -0.36139  -0.29669
 Alpha virt. eigenvalues --    0.07188   0.09210   0.11098   0.11415   0.12582
 Alpha virt. eigenvalues --    0.13391   0.14032   0.14940   0.15771   0.16286
 Alpha virt. eigenvalues --    0.18003   0.19281   0.20119   0.21401   0.22321
 Alpha virt. eigenvalues --    0.23877   0.26901   0.28229   0.29891   0.31148
 Alpha virt. eigenvalues --    0.31951   0.34606   0.35028   0.35605   0.37943
 Alpha virt. eigenvalues --    0.39476   0.42010   0.43924   0.45878   0.47278
 Alpha virt. eigenvalues --    0.48886   0.48902   0.49944   0.51397   0.51583
 Alpha virt. eigenvalues --    0.52064   0.52992   0.53403   0.53786   0.54113
 Alpha virt. eigenvalues --    0.55462   0.55876   0.56503   0.57274   0.57972
 Alpha virt. eigenvalues --    0.58882   0.60052   0.63221   0.65560   0.67499
 Alpha virt. eigenvalues --    0.69134   0.69239   0.73420   0.74367   0.77829
 Alpha virt. eigenvalues --    0.79059   0.79499   0.83139   0.83670   0.84340
 Alpha virt. eigenvalues --    0.87297   0.88824   0.91183   0.93680   0.94215
 Alpha virt. eigenvalues --    0.95395   0.97311   0.98651   1.00294   1.01784
 Alpha virt. eigenvalues --    1.03434   1.04751   1.06476   1.07488   1.08279
 Alpha virt. eigenvalues --    1.08808   1.10876   1.11747   1.12692   1.13591
 Alpha virt. eigenvalues --    1.14849   1.16670   1.18556   1.19867   1.20518
 Alpha virt. eigenvalues --    1.21375   1.23456   1.23960   1.26202   1.27266
 Alpha virt. eigenvalues --    1.28143   1.30092   1.32279   1.33517   1.34187
 Alpha virt. eigenvalues --    1.36547   1.37384   1.38055   1.38568   1.39688
 Alpha virt. eigenvalues --    1.40344   1.42068   1.42985   1.44066   1.46749
 Alpha virt. eigenvalues --    1.47133   1.48720   1.50566   1.51909   1.53320
 Alpha virt. eigenvalues --    1.55170   1.56460   1.60477   1.60757   1.60931
 Alpha virt. eigenvalues --    1.62440   1.65071   1.69448   1.70353   1.73413
 Alpha virt. eigenvalues --    1.74633   1.79018   1.80271   1.81713   1.88811
 Alpha virt. eigenvalues --    1.96926   2.03352   2.06160   2.13807   2.20245
 Alpha virt. eigenvalues --    2.23165   2.29593   2.33968   2.37161   2.38789
 Alpha virt. eigenvalues --    2.40305   2.41693   2.44547   2.45308   2.46221
 Alpha virt. eigenvalues --    2.49487   2.52708   2.56651   2.57249   2.62365
 Alpha virt. eigenvalues --    2.65231   2.66273   2.67631   2.69243   2.71784
 Alpha virt. eigenvalues --    2.72395   2.73707   2.75764   2.75874   2.77402
 Alpha virt. eigenvalues --    2.82463   2.84848   2.86609   2.86709   2.90263
 Alpha virt. eigenvalues --    2.91896   2.92970   2.93277   2.94205   2.94919
 Alpha virt. eigenvalues --    2.95379   2.96848   2.99660   3.00541   3.02282
 Alpha virt. eigenvalues --    3.04683   3.07445   3.08758   3.10785   3.11717
 Alpha virt. eigenvalues --    3.12781   3.13613   3.14913   3.16529   3.16673
 Alpha virt. eigenvalues --    3.18067   3.18505   3.20506   3.20863   3.21498
 Alpha virt. eigenvalues --    3.22410   3.23420   3.24103   3.27726   3.28574
 Alpha virt. eigenvalues --    3.29462   3.30634   3.34951   3.37168   3.39504
 Alpha virt. eigenvalues --    3.41653   3.42497   3.44208   3.44820   3.45908
 Alpha virt. eigenvalues --    3.46597   3.48842   3.50262   3.51047   3.53244
 Alpha virt. eigenvalues --    3.53749   3.54380   3.55392   3.57344   3.57556
 Alpha virt. eigenvalues --    3.58698   3.60329   3.61432   3.63334   3.64785
 Alpha virt. eigenvalues --    3.65950   3.68158   3.69979   3.72993   3.75003
 Alpha virt. eigenvalues --    3.75788   3.78164   3.81525   3.82474   3.84430
 Alpha virt. eigenvalues --    3.86868   3.87433   3.88768   3.90255   3.91380
 Alpha virt. eigenvalues --    3.92390   3.94337   3.95262   3.96546   3.96984
 Alpha virt. eigenvalues --    3.98434   4.00432   4.02118   4.05021   4.06981
 Alpha virt. eigenvalues --    4.08221   4.09072   4.10478   4.11370   4.11688
 Alpha virt. eigenvalues --    4.13168   4.13965   4.15667   4.19177   4.19448
 Alpha virt. eigenvalues --    4.21142   4.22752   4.25147   4.26192   4.26565
 Alpha virt. eigenvalues --    4.27178   4.28558   4.29669   4.31597   4.32845
 Alpha virt. eigenvalues --    4.33601   4.34799   4.36901   4.38879   4.40895
 Alpha virt. eigenvalues --    4.41555   4.43730   4.46213   4.47468   4.48859
 Alpha virt. eigenvalues --    4.49834   4.53066   4.54038   4.57926   4.59551
 Alpha virt. eigenvalues --    4.63193   4.66480   4.68911   4.71660   4.77501
 Alpha virt. eigenvalues --    4.78787   4.79482   4.82414   4.84557   4.87400
 Alpha virt. eigenvalues --    4.89823   4.91398   4.94840   4.97281   4.98983
 Alpha virt. eigenvalues --    5.00242   5.01943   5.02110   5.03222   5.05428
 Alpha virt. eigenvalues --    5.06859   5.09931   5.11213   5.12847   5.18638
 Alpha virt. eigenvalues --    5.24451   5.25253   5.28164   5.28249   5.29955
 Alpha virt. eigenvalues --    5.32354   5.32655   5.34354   5.35763   5.38360
 Alpha virt. eigenvalues --    5.38751   5.39188   5.41434   5.44388   5.46371
 Alpha virt. eigenvalues --    5.48946   5.50432   5.50687   5.52738   5.53493
 Alpha virt. eigenvalues --    5.58961   5.60116   5.62292   5.66579   5.69215
 Alpha virt. eigenvalues --    5.70309   5.72026   5.79735   5.88104   5.96326
 Alpha virt. eigenvalues --    5.96765   5.98500   6.05724   6.06463   6.07148
 Alpha virt. eigenvalues --    6.08906   6.10341   6.10706   6.15246   6.29013
 Alpha virt. eigenvalues --    6.33429   6.42415   6.44731   6.68545   6.76584
 Alpha virt. eigenvalues --    6.78276   6.85821   6.97717   7.06506   7.08768
 Alpha virt. eigenvalues --    7.21128   7.44549   7.46426   7.62659   7.74131
 Alpha virt. eigenvalues --   10.02090  10.83764  11.66937  13.09203  13.45577
 Alpha virt. eigenvalues --   13.82848  13.97073
  Beta  occ. eigenvalues --  -19.78339 -19.76763 -10.65949 -10.62850 -10.62050
  Beta  occ. eigenvalues --  -10.60876 -10.60455  -1.26862  -0.98977  -0.92971
  Beta  occ. eigenvalues --   -0.79475  -0.78339  -0.76454  -0.65609  -0.58024
  Beta  occ. eigenvalues --   -0.54871  -0.54696  -0.54474  -0.51216  -0.49251
  Beta  occ. eigenvalues --   -0.46535  -0.45701  -0.44968  -0.43463  -0.40848
  Beta  occ. eigenvalues --   -0.40270  -0.39589  -0.35054  -0.33014
  Beta virt. eigenvalues --   -0.04308   0.07329   0.09322   0.11309   0.11584
  Beta virt. eigenvalues --    0.12731   0.13718   0.14137   0.15140   0.16002
  Beta virt. eigenvalues --    0.16389   0.18163   0.19393   0.20257   0.21524
  Beta virt. eigenvalues --    0.23081   0.24332   0.27208   0.28585   0.30140
  Beta virt. eigenvalues --    0.31261   0.32281   0.35066   0.35223   0.36170
  Beta virt. eigenvalues --    0.38381   0.40071   0.42679   0.44487   0.45985
  Beta virt. eigenvalues --    0.47529   0.49079   0.49229   0.50103   0.51603
  Beta virt. eigenvalues --    0.51853   0.52420   0.53456   0.53658   0.54014
  Beta virt. eigenvalues --    0.55081   0.56064   0.56859   0.57011   0.57798
  Beta virt. eigenvalues --    0.58386   0.59067   0.60529   0.63384   0.65983
  Beta virt. eigenvalues --    0.68115   0.69306   0.69367   0.73837   0.75294
  Beta virt. eigenvalues --    0.78213   0.79193   0.79801   0.83284   0.83838
  Beta virt. eigenvalues --    0.84507   0.87742   0.89483   0.91457   0.93796
  Beta virt. eigenvalues --    0.94466   0.95825   0.97462   0.98769   1.00599
  Beta virt. eigenvalues --    1.02005   1.03522   1.04925   1.06569   1.07758
  Beta virt. eigenvalues --    1.08724   1.09005   1.11112   1.11909   1.12881
  Beta virt. eigenvalues --    1.13775   1.15030   1.16847   1.18676   1.20012
  Beta virt. eigenvalues --    1.20620   1.21495   1.23829   1.24164   1.26357
  Beta virt. eigenvalues --    1.27500   1.28370   1.30417   1.32694   1.33776
  Beta virt. eigenvalues --    1.34564   1.36881   1.37446   1.38201   1.39043
  Beta virt. eigenvalues --    1.39893   1.40453   1.42350   1.43255   1.44274
  Beta virt. eigenvalues --    1.46950   1.47569   1.49024   1.50778   1.52259
  Beta virt. eigenvalues --    1.53802   1.55426   1.56737   1.60645   1.61060
  Beta virt. eigenvalues --    1.61321   1.62667   1.65169   1.69840   1.70784
  Beta virt. eigenvalues --    1.73956   1.75004   1.79256   1.80673   1.82084
  Beta virt. eigenvalues --    1.91775   1.97566   2.03919   2.07329   2.14052
  Beta virt. eigenvalues --    2.22229   2.23690   2.30159   2.34216   2.37488
  Beta virt. eigenvalues --    2.38937   2.41178   2.41894   2.44709   2.46001
  Beta virt. eigenvalues --    2.46575   2.49998   2.53105   2.56839   2.57828
  Beta virt. eigenvalues --    2.62533   2.65505   2.66631   2.68116   2.69535
  Beta virt. eigenvalues --    2.72143   2.72810   2.73826   2.75952   2.76628
  Beta virt. eigenvalues --    2.77527   2.82638   2.84980   2.86808   2.87150
  Beta virt. eigenvalues --    2.90869   2.92581   2.93128   2.93464   2.94891
  Beta virt. eigenvalues --    2.95338   2.95762   2.97001   3.00118   3.01056
  Beta virt. eigenvalues --    3.02581   3.04761   3.07754   3.09287   3.10880
  Beta virt. eigenvalues --    3.11828   3.12998   3.13718   3.15473   3.16819
  Beta virt. eigenvalues --    3.16949   3.18506   3.18739   3.20849   3.21117
  Beta virt. eigenvalues --    3.22137   3.22679   3.23551   3.24335   3.28484
  Beta virt. eigenvalues --    3.28690   3.29674   3.31128   3.36183   3.37255
  Beta virt. eigenvalues --    3.39839   3.42391   3.42628   3.44364   3.44861
  Beta virt. eigenvalues --    3.45965   3.46879   3.48903   3.50554   3.51273
  Beta virt. eigenvalues --    3.53327   3.54013   3.54756   3.55659   3.57628
  Beta virt. eigenvalues --    3.57993   3.59034   3.60475   3.61550   3.63513
  Beta virt. eigenvalues --    3.64877   3.66278   3.68411   3.70487   3.73269
  Beta virt. eigenvalues --    3.75156   3.75966   3.78417   3.81690   3.82876
  Beta virt. eigenvalues --    3.84581   3.86941   3.87608   3.88862   3.90404
  Beta virt. eigenvalues --    3.91507   3.92501   3.94437   3.95340   3.96611
  Beta virt. eigenvalues --    3.97167   3.98551   4.00724   4.02144   4.05013
  Beta virt. eigenvalues --    4.07138   4.08325   4.09298   4.10531   4.11438
  Beta virt. eigenvalues --    4.11832   4.13279   4.14142   4.15710   4.19377
  Beta virt. eigenvalues --    4.19551   4.21251   4.22892   4.25232   4.26346
  Beta virt. eigenvalues --    4.26879   4.27287   4.28764   4.29763   4.31698
  Beta virt. eigenvalues --    4.32884   4.34119   4.34901   4.36944   4.39025
  Beta virt. eigenvalues --    4.41037   4.41758   4.43953   4.46552   4.47817
  Beta virt. eigenvalues --    4.49004   4.50096   4.53274   4.54270   4.58020
  Beta virt. eigenvalues --    4.60059   4.63977   4.66977   4.69313   4.71834
  Beta virt. eigenvalues --    4.77772   4.79368   4.79722   4.82752   4.84786
  Beta virt. eigenvalues --    4.87651   4.90117   4.91982   4.94970   4.97508
  Beta virt. eigenvalues --    4.99191   5.00455   5.02039   5.02236   5.03390
  Beta virt. eigenvalues --    5.05845   5.07071   5.10159   5.11560   5.13371
  Beta virt. eigenvalues --    5.19282   5.24999   5.25951   5.28293   5.28451
  Beta virt. eigenvalues --    5.30298   5.32497   5.32801   5.34703   5.36175
  Beta virt. eigenvalues --    5.38577   5.39140   5.39598   5.41730   5.44742
  Beta virt. eigenvalues --    5.46662   5.49141   5.50636   5.50857   5.52789
  Beta virt. eigenvalues --    5.53629   5.59153   5.60374   5.62416   5.66752
  Beta virt. eigenvalues --    5.69407   5.70807   5.72569   5.80294   5.89692
  Beta virt. eigenvalues --    5.96459   5.96974   5.98686   6.05812   6.07203
  Beta virt. eigenvalues --    6.07727   6.09033   6.10687   6.11670   6.15373
  Beta virt. eigenvalues --    6.29470   6.35467   6.43017   6.46270   6.69419
  Beta virt. eigenvalues --    6.79193   6.80470   6.87087   6.99449   7.07090
  Beta virt. eigenvalues --    7.10676   7.23430   7.44910   7.48341   7.64247
  Beta virt. eigenvalues --    7.75156  10.03095  10.84753  11.67097  13.10081
  Beta virt. eigenvalues --   13.45580  13.82931  13.97098
          Condensed to atoms (all electrons):
               1          2          3          4          5          6
     1  C    4.899554   0.419338   0.318941  -0.033327  -0.032703   0.000448
     2  H    0.419338   0.593516  -0.038512   0.007087  -0.004567  -0.000012
     3  C    0.318941  -0.038512   5.184625   0.392385   0.405587  -0.004715
     4  H   -0.033327   0.007087   0.392385   0.560232  -0.026119  -0.000680
     5  H   -0.032703  -0.004567   0.405587  -0.026119   0.532950   0.000142
     6  C    0.000448  -0.000012  -0.004715  -0.000680   0.000142   4.593942
     7  H   -0.000836   0.000015   0.001916  -0.003675  -0.000084   0.388843
     8  H   -0.000059  -0.000005   0.000541  -0.000094   0.000002   0.408271
     9  H    0.000241   0.000002  -0.000552   0.000381  -0.000004   0.408700
    10  O    0.000598  -0.000028   0.005892   0.003798   0.000373   0.314474
    11  O    0.000979   0.000464  -0.083744  -0.000703   0.000486  -0.044626
    12  H   -0.008736  -0.001411   0.221000  -0.007426  -0.007384   0.005131
    13  C    0.336319  -0.039457  -0.052095  -0.005668  -0.003707  -0.000034
    14  H   -0.035761   0.007778  -0.004060   0.003063  -0.000067  -0.000001
    15  H   -0.034207  -0.005160   0.008037  -0.000117  -0.000102   0.000000
    16  H   -0.035345  -0.005327  -0.004046  -0.000139   0.002637   0.000001
    17  C    0.338682  -0.036910  -0.050039  -0.005505   0.006789  -0.002087
    18  H   -0.032914  -0.005240  -0.004656  -0.000499   0.000065  -0.001025
    19  H   -0.034341  -0.005222   0.007518  -0.000173  -0.000353   0.000042
    20  H   -0.038626   0.007811  -0.005816   0.004075  -0.000065  -0.000563
               7          8          9         10         11         12
     1  C   -0.000836  -0.000059   0.000241   0.000598   0.000979  -0.008736
     2  H    0.000015  -0.000005   0.000002  -0.000028   0.000464  -0.001411
     3  C    0.001916   0.000541  -0.000552   0.005892  -0.083744   0.221000
     4  H   -0.003675  -0.000094   0.000381   0.003798  -0.000703  -0.007426
     5  H   -0.000084   0.000002  -0.000004   0.000373   0.000486  -0.007384
     6  C    0.388843   0.408271   0.408700   0.314474  -0.044626   0.005131
     7  H    0.706600  -0.034378  -0.066310  -0.051849  -0.005623   0.005701
     8  H   -0.034378   0.565885  -0.028350  -0.024705   0.005735  -0.001277
     9  H   -0.066310  -0.028350   0.639372  -0.044419   0.005495   0.000635
    10  O   -0.051849  -0.024705  -0.044419   7.941879   0.064284  -0.033116
    11  O   -0.005623   0.005735   0.005495   0.064284   8.069573   0.198067
    12  H    0.005701  -0.001277   0.000635  -0.033116   0.198067   0.426745
    13  C    0.000126   0.000003  -0.000007  -0.000019   0.000092   0.000990
    14  H    0.000022  -0.000000  -0.000002  -0.000005   0.000009  -0.000084
    15  H   -0.000009  -0.000000   0.000000   0.000001   0.000008  -0.000087
    16  H    0.000000  -0.000000   0.000000   0.000000   0.000005  -0.000099
    17  C   -0.002415   0.000083  -0.000531   0.000908  -0.003334  -0.003774
    18  H   -0.002179   0.000242   0.001275  -0.000750   0.010230  -0.000844
    19  H    0.000043   0.000002  -0.000024   0.000002   0.000094   0.000041
    20  H    0.000503  -0.000016   0.000081  -0.000025  -0.000099  -0.000218
              13         14         15         16         17         18
     1  C    0.336319  -0.035761  -0.034207  -0.035345   0.338682  -0.032914
     2  H   -0.039457   0.007778  -0.005160  -0.005327  -0.036910  -0.005240
     3  C   -0.052095  -0.004060   0.008037  -0.004046  -0.050039  -0.004656
     4  H   -0.005668   0.003063  -0.000117  -0.000139  -0.005505  -0.000499
     5  H   -0.003707  -0.000067  -0.000102   0.002637   0.006789   0.000065
     6  C   -0.000034  -0.000001   0.000000   0.000001  -0.002087  -0.001025
     7  H    0.000126   0.000022  -0.000009   0.000000  -0.002415  -0.002179
     8  H    0.000003  -0.000000  -0.000000  -0.000000   0.000083   0.000242
     9  H   -0.000007  -0.000002   0.000000   0.000000  -0.000531   0.001275
    10  O   -0.000019  -0.000005   0.000001   0.000000   0.000908  -0.000750
    11  O    0.000092   0.000009   0.000008   0.000005  -0.003334   0.010230
    12  H    0.000990  -0.000084  -0.000087  -0.000099  -0.003774  -0.000844
    13  C    4.893700   0.404746   0.407367   0.412651  -0.053539   0.007164
    14  H    0.404746   0.596057  -0.030503  -0.031203  -0.005504  -0.000116
    15  H    0.407367  -0.030503   0.584301  -0.028585  -0.004791  -0.000056
    16  H    0.412651  -0.031203  -0.028585   0.580389   0.007888  -0.000352
    17  C   -0.053539  -0.005504  -0.004791   0.007888   4.907705   0.413109
    18  H    0.007164  -0.000116  -0.000056  -0.000352   0.413109   0.560918
    19  H   -0.004866  -0.000202   0.003121  -0.000053   0.410563  -0.026187
    20  H   -0.005825   0.004176  -0.000258  -0.000148   0.405069  -0.032316
              19         20
     1  C   -0.034341  -0.038626
     2  H   -0.005222   0.007811
     3  C    0.007518  -0.005816
     4  H   -0.000173   0.004075
     5  H   -0.000353  -0.000065
     6  C    0.000042  -0.000563
     7  H    0.000043   0.000503
     8  H    0.000002  -0.000016
     9  H   -0.000024   0.000081
    10  O    0.000002  -0.000025
    11  O    0.000094  -0.000099
    12  H    0.000041  -0.000218
    13  C   -0.004866  -0.005825
    14  H   -0.000202   0.004176
    15  H    0.003121  -0.000258
    16  H   -0.000053  -0.000148
    17  C    0.410563   0.405069
    18  H   -0.026187  -0.032316
    19  H    0.574015  -0.029576
    20  H   -0.029576   0.605185
          Atomic-Atomic Spin Densities.
               1          2          3          4          5          6
     1  C   -0.032974   0.001362  -0.024455  -0.000942  -0.000907  -0.000089
     2  H    0.001362   0.006911  -0.003387   0.000098   0.000966  -0.000002
     3  C   -0.024455  -0.003387   0.695490   0.006923   0.004667   0.001282
     4  H   -0.000942   0.000098   0.006923  -0.027789   0.002893  -0.000432
     5  H   -0.000907   0.000966   0.004667   0.002893  -0.022362  -0.000060
     6  C   -0.000089  -0.000002   0.001282  -0.000432  -0.000060  -0.005166
     7  H    0.000612   0.000056  -0.005454   0.001533   0.000183   0.003555
     8  H   -0.000001  -0.000000   0.000083  -0.000010  -0.000003  -0.000120
     9  H   -0.000148  -0.000019   0.001441  -0.000182  -0.000030  -0.003081
    10  O   -0.000360  -0.000041   0.012616  -0.001578  -0.000496   0.001072
    11  O    0.004188   0.000926  -0.089066   0.003033   0.002878  -0.002493
    12  H    0.001869  -0.000663   0.056500   0.002922   0.001147   0.001053
    13  C    0.016523  -0.003371  -0.019717  -0.000994  -0.001646   0.000020
    14  H    0.000049   0.000083   0.001223   0.000180   0.000128  -0.000001
    15  H   -0.002989   0.000954   0.002191   0.000148   0.000187  -0.000000
    16  H    0.000308   0.000061   0.000245   0.000044   0.000069  -0.000000
    17  C    0.004281   0.000763  -0.004231   0.000339   0.000090   0.000028
    18  H   -0.001071  -0.000306   0.002505  -0.000277  -0.000133  -0.000170
    19  H    0.000851   0.000057  -0.000083  -0.000001   0.000017   0.000001
    20  H    0.000467   0.000047   0.000002   0.000082   0.000024   0.000002
               7          8          9         10         11         12
     1  C    0.000612  -0.000001  -0.000148  -0.000360   0.004188   0.001869
     2  H    0.000056  -0.000000  -0.000019  -0.000041   0.000926  -0.000663
     3  C   -0.005454   0.000083   0.001441   0.012616  -0.089066   0.056500
     4  H    0.001533  -0.000010  -0.000182  -0.001578   0.003033   0.002922
     5  H    0.000183  -0.000003  -0.000030  -0.000496   0.002878   0.001147
     6  C    0.003555  -0.000120  -0.003081   0.001072  -0.002493   0.001053
     7  H    0.004114  -0.000799  -0.002004  -0.001128   0.004663  -0.003852
     8  H   -0.000799  -0.000974   0.001135  -0.000019  -0.000120   0.000094
     9  H   -0.002004   0.001135   0.005778  -0.001057  -0.000330   0.001542
    10  O   -0.001128  -0.000019  -0.001057   0.060349  -0.046054   0.010763
    11  O    0.004663  -0.000120  -0.000330  -0.046054   0.594799  -0.050172
    12  H   -0.003852   0.000094   0.001542   0.010763  -0.050172  -0.100183
    13  C   -0.000130   0.000000   0.000010   0.000025  -0.000387   0.000130
    14  H    0.000017  -0.000000  -0.000001  -0.000003   0.000019  -0.000044
    15  H    0.000011  -0.000000  -0.000001  -0.000001   0.000019  -0.000032
    16  H    0.000002  -0.000000  -0.000000  -0.000001   0.000008  -0.000014
    17  C    0.000163   0.000002  -0.000007  -0.000134   0.001193  -0.000622
    18  H   -0.000180  -0.000011   0.000109   0.000174  -0.001993   0.001428
    19  H   -0.000005  -0.000000  -0.000000   0.000000  -0.000006  -0.000008
    20  H    0.000101  -0.000000  -0.000018  -0.000011   0.000078  -0.000051
              13         14         15         16         17         18
     1  C    0.016523   0.000049  -0.002989   0.000308   0.004281  -0.001071
     2  H   -0.003371   0.000083   0.000954   0.000061   0.000763  -0.000306
     3  C   -0.019717   0.001223   0.002191   0.000245  -0.004231   0.002505
     4  H   -0.000994   0.000180   0.000148   0.000044   0.000339  -0.000277
     5  H   -0.001646   0.000128   0.000187   0.000069   0.000090  -0.000133
     6  C    0.000020  -0.000001  -0.000000  -0.000000   0.000028  -0.000170
     7  H   -0.000130   0.000017   0.000011   0.000002   0.000163  -0.000180
     8  H    0.000000  -0.000000  -0.000000  -0.000000   0.000002  -0.000011
     9  H    0.000010  -0.000001  -0.000001  -0.000000  -0.000007   0.000109
    10  O    0.000025  -0.000003  -0.000001  -0.000001  -0.000134   0.000174
    11  O   -0.000387   0.000019   0.000019   0.000008   0.001193  -0.001993
    12  H    0.000130  -0.000044  -0.000032  -0.000014  -0.000622   0.001428
    13  C    0.043415  -0.001064  -0.003249  -0.000238  -0.001253   0.000476
    14  H   -0.001064  -0.002207   0.000835   0.000456   0.000044  -0.000032
    15  H   -0.003249   0.000835   0.012482   0.000383  -0.000005  -0.000114
    16  H   -0.000238   0.000456   0.000383  -0.002435  -0.000010  -0.000006
    17  C   -0.001253   0.000044  -0.000005  -0.000010   0.003927  -0.000014
    18  H    0.000476  -0.000032  -0.000114  -0.000006  -0.000014  -0.000496
    19  H   -0.000077   0.000018  -0.000141   0.000005   0.000086   0.000088
    20  H   -0.000415  -0.000001   0.000115   0.000007  -0.000115  -0.000164
              19         20
     1  C    0.000851   0.000467
     2  H    0.000057   0.000047
     3  C   -0.000083   0.000002
     4  H   -0.000001   0.000082
     5  H    0.000017   0.000024
     6  C    0.000001   0.000002
     7  H   -0.000005   0.000101
     8  H   -0.000000  -0.000000
     9  H   -0.000000  -0.000018
    10  O    0.000000  -0.000011
    11  O   -0.000006   0.000078
    12  H   -0.000008  -0.000051
    13  C   -0.000077  -0.000415
    14  H    0.000018  -0.000001
    15  H   -0.000141   0.000115
    16  H    0.000005   0.000007
    17  C    0.000086  -0.000115
    18  H    0.000088  -0.000164
    19  H   -0.002175   0.000096
    20  H    0.000096  -0.000536
 Mulliken charges and spin densities:
               1          2
     1  C   -0.028248  -0.033427
     2  H    0.105839   0.004494
     3  C   -0.298207   0.638774
     4  H    0.113104  -0.014008
     5  H    0.126124  -0.012387
     6  C   -0.066250  -0.004603
     7  H    0.063589   0.001458
     8  H    0.108120  -0.000744
     9  H    0.084017   0.003136
    10  O   -0.177292   0.034117
    11  O   -0.217389   0.421184
    12  H    0.206145  -0.078194
    13  C   -0.297942   0.028058
    14  H    0.091656  -0.000301
    15  H    0.101039   0.010792
    16  H    0.101727  -0.001116
    17  C   -0.322367   0.004526
    18  H    0.114130  -0.000187
    19  H    0.105557  -0.001278
    20  H    0.086648  -0.000294
 Sum of Mulliken charges =  -0.00000   1.00000
 Mulliken charges and spin densities with hydrogens summed into heavy atoms:
               1          2
     1  C    0.077591  -0.028933
     3  C   -0.058979   0.612379
     6  C    0.189477  -0.000753
    10  O   -0.177292   0.034117
    11  O   -0.011244   0.342991
    13  C   -0.003521   0.037432
    17  C   -0.016033   0.002768
 APT charges:
               1
     1  C   -0.012392
     2  H   -0.044835
     3  C    0.445673
     4  H   -0.061407
     5  H   -0.054170
     6  C    0.422488
     7  H   -0.037491
     8  H   -0.006129
     9  H   -0.027121
    10  O   -0.483319
    11  O    0.255534
    12  H   -0.384267
    13  C    0.078789
    14  H   -0.015245
    15  H   -0.052993
    16  H   -0.014657
    17  C    0.033434
    18  H   -0.002223
    19  H   -0.020574
    20  H   -0.019094
 Sum of APT charges =  -0.00000
 APT charges with hydrogens summed into heavy atoms:
               1
     1  C   -0.057227
     3  C    0.330096
     6  C    0.351747
    10  O   -0.483319
    11  O   -0.128733
    13  C   -0.004107
    17  C   -0.008457
 Electronic spatial extent (au):  <R**2>=           1256.0886
 Charge=             -0.0000 electrons
 Dipole moment (field-independent basis, Debye):
    X=             -1.7000    Y=              1.4367    Z=              1.2198  Tot=              2.5381
 Quadrupole moment (field-independent basis, Debye-Ang):
   XX=            -46.9357   YY=            -46.1216   ZZ=            -46.5532
   XY=              5.4272   XZ=              3.1216   YZ=             -0.0869
 Traceless Quadrupole moment (field-independent basis, Debye-Ang):
   XX=             -0.3989   YY=              0.4152   ZZ=             -0.0164
   XY=              5.4272   XZ=              3.1216   YZ=             -0.0869
 Octapole moment (field-independent basis, Debye-Ang**2):
  XXX=             18.5861  YYY=             -7.0146  ZZZ=             -0.5966  XYY=              3.5747
  XXY=             12.0721  XXZ=              2.5861  XZZ=              5.5439  YZZ=              0.5846
  YYZ=             -0.8051  XYZ=              0.2903
 Hexadecapole moment (field-independent basis, Debye-Ang**3):
 XXXX=          -1232.9863 YYYY=           -273.7034 ZZZZ=           -142.7201 XXXY=             22.7299
 XXXZ=             23.5623 YYYX=              0.2701 YYYZ=              0.7484 ZZZX=              2.5342
 ZZZY=              3.6088 XXYY=           -251.1628 XXZZ=           -226.4425 YYZZ=            -71.1393
 XXYZ=              1.0036 YYXZ=              0.9878 ZZXY=             -0.3586
 N-N= 3.262142430776D+02 E-N=-1.465961898656D+03  KE= 3.465649207776D+02
  Exact polarizability: 118.878   7.838  71.354  -2.773  -0.524  66.548
 Approx polarizability:  99.540   3.311  77.121  -1.592   1.082  81.572
                          Isotropic Fermi Contact Couplings
        Atom                 a.u.       MegaHertz       Gauss      10(-4) cm-1
     1  C(13)             -0.01080     -12.14340      -4.33307      -4.05060
     2  H(1)               0.00290      12.96570       4.62648       4.32489
     3  C(13)              0.09135     102.69130      36.64281      34.25413
     4  H(1)              -0.00400     -17.85917      -6.37259      -5.95718
     5  H(1)              -0.00359     -16.02506      -5.71814      -5.34539
     6  C(13)             -0.00401      -4.51083      -1.60957      -1.50465
     7  H(1)               0.00272      12.14986       4.33537       4.05276
     8  H(1)              -0.00010      -0.44442      -0.15858      -0.14824
     9  H(1)               0.00077       3.45536       1.23296       1.15258
    10  O(17)              0.01604      -9.72292      -3.46938      -3.24322
    11  O(17)              0.04652     -28.20171     -10.06307      -9.40708
    12  H(1)              -0.02355    -105.26157     -37.55995     -35.11148
    13  C(13)              0.03838      43.14404      15.39487      14.39130
    14  H(1)              -0.00047      -2.09582      -0.74784      -0.69909
    15  H(1)               0.00420      18.77668       6.69999       6.26323
    16  H(1)              -0.00030      -1.33247      -0.47546      -0.44446
    17  C(13)              0.00207       2.33126       0.83185       0.77763
    18  H(1)              -0.00019      -0.84510      -0.30155      -0.28189
    19  H(1)              -0.00030      -1.34936      -0.48149      -0.45010
    20  H(1)              -0.00021      -0.92252      -0.32918      -0.30772
 --------------------------------------------------------
       Center         ----  Spin Dipole Couplings  ----
                      3XX-RR        3YY-RR        3ZZ-RR
 --------------------------------------------------------
     1   Atom        0.024026     -0.010242     -0.013785
     2   Atom        0.003055     -0.007146      0.004090
     3   Atom        0.393094     -0.342889     -0.050205
     4   Atom       -0.000744     -0.034277      0.035021
     5   Atom       -0.012765      0.043262     -0.030497
     6   Atom        0.000271      0.003654     -0.003925
     7   Atom       -0.002275      0.003887     -0.001612
     8   Atom        0.000538     -0.000183     -0.000355
     9   Atom       -0.000765      0.005411     -0.004646
    10   Atom        0.271738     -0.186753     -0.084985
    11   Atom        0.695344     -0.893405      0.198061
    12   Atom        0.157973     -0.118018     -0.039955
    13   Atom        0.047220     -0.025195     -0.022025
    14   Atom        0.002807     -0.004362      0.001555
    15   Atom        0.003364     -0.001657     -0.001707
    16   Atom        0.007650     -0.001340     -0.006309
    17   Atom       -0.004731      0.012410     -0.007679
    18   Atom       -0.002673      0.007098     -0.004426
    19   Atom       -0.000306      0.002440     -0.002134
    20   Atom       -0.002352      0.006102     -0.003749
 --------------------------------------------------------
                        XY            XZ            YZ
 --------------------------------------------------------
     1   Atom       -0.013583     -0.001997     -0.002981
     2   Atom       -0.002208      0.008962     -0.003398
     3   Atom        0.105571     -0.479236     -0.066566
     4   Atom        0.015266      0.006726      0.023007
     5   Atom        0.011726     -0.019378      0.006559
     6   Atom        0.003819      0.003380      0.006368
     7   Atom        0.003181      0.000537      0.006622
     8   Atom        0.003638      0.002931      0.003315
     9   Atom        0.005922      0.000803      0.001374
    10   Atom        0.056611     -0.295746     -0.014664
    11   Atom        0.216625     -1.347578     -0.185790
    12   Atom        0.040587     -0.148982     -0.020986
    13   Atom       -0.007922     -0.019060      0.002776
    14   Atom       -0.004352     -0.005075      0.003029
    15   Atom       -0.003522      0.001646     -0.002428
    16   Atom        0.004516     -0.000605     -0.001181
    17   Atom       -0.003996      0.000858     -0.001579
    18   Atom       -0.002746     -0.000286     -0.004431
    19   Atom       -0.002645      0.000744     -0.001813
    20   Atom       -0.002728     -0.000973      0.001990
 --------------------------------------------------------


 ---------------------------------------------------------------------------------
              Anisotropic Spin Dipole Couplings in Principal Axis System
 ---------------------------------------------------------------------------------

       Atom             a.u.   MegaHertz   Gauss  10(-4) cm-1        Axes

              Baa    -0.0179    -2.403    -0.857    -0.802  0.2630  0.7169  0.6456
     1 C(13)  Bbb    -0.0109    -1.458    -0.520    -0.486 -0.1959 -0.6156  0.7633
              Bcc     0.0288     3.861     1.378     1.288  0.9447 -0.3272 -0.0214
 
              Baa    -0.0081    -4.327    -1.544    -1.443 -0.0596  0.9495  0.3082
     2 H(1)   Bbb    -0.0052    -2.784    -0.993    -0.928  0.7415  0.2488 -0.6231
              Bcc     0.0133     7.111     2.537     2.372  0.6683 -0.1914  0.7188
 
              Baa    -0.3580   -48.044   -17.143   -16.026 -0.3385  0.8786 -0.3369
     3 C(13)  Bbb    -0.3562   -47.793   -17.054   -15.942  0.4304  0.4630  0.7749
              Bcc     0.7142    95.837    34.197    31.968  0.8368  0.1172 -0.5348
 
              Baa    -0.0450   -23.992    -8.561    -8.003 -0.2833  0.9277 -0.2430
     4 H(1)   Bbb     0.0003     0.159     0.057     0.053  0.9281  0.2014 -0.3132
              Bcc     0.0447    23.832     8.504     7.950  0.2416  0.3143  0.9181
 
              Baa    -0.0446   -23.774    -8.483    -7.930  0.5515 -0.1351  0.8231
     5 H(1)   Bbb    -0.0012    -0.618    -0.220    -0.206  0.8135 -0.1311 -0.5666
              Bcc     0.0457    24.392     8.704     8.136  0.1845  0.9821  0.0376
 
              Baa    -0.0077    -1.036    -0.370    -0.346 -0.1635 -0.4396  0.8832
     6 C(13)  Bbb    -0.0022    -0.290    -0.104    -0.097  0.8711 -0.4845 -0.0798
              Bcc     0.0099     1.326     0.473     0.442  0.4630  0.7563  0.4622
 
              Baa    -0.0065    -3.473    -1.239    -1.159  0.3394 -0.5770  0.7429
     7 H(1)   Bbb    -0.0026    -1.371    -0.489    -0.457  0.9059 -0.0122 -0.4233
              Bcc     0.0091     4.844     1.728     1.616  0.2533  0.8166  0.5186
 
              Baa    -0.0038    -2.005    -0.716    -0.669 -0.3551  0.8038 -0.4772
     8 H(1)   Bbb    -0.0029    -1.525    -0.544    -0.509  0.7095 -0.1006 -0.6974
              Bcc     0.0066     3.531     1.260     1.178  0.6086  0.5863  0.5346
 
              Baa    -0.0048    -2.577    -0.920    -0.860 -0.0128 -0.1257  0.9920
     9 H(1)   Bbb    -0.0044    -2.323    -0.829    -0.775  0.8572 -0.5122 -0.0538
              Bcc     0.0092     4.901     1.749     1.635  0.5149  0.8496  0.1143
 
              Baa    -0.2555    18.490     6.598     6.168  0.4948 -0.2285  0.8384
    10 O(17)  Bbb    -0.1883    13.624     4.861     4.544  0.0367  0.9694  0.2426
              Bcc     0.4438   -32.114   -11.459   -10.712  0.8682  0.0893 -0.4881
 
              Baa    -0.9276    67.118    23.949    22.388  0.4112  0.6820  0.6048
    11 O(17)  Bbb    -0.9192    66.511    23.733    22.186 -0.4967  0.7240 -0.4787
              Bcc     1.8467  -133.629   -47.682   -44.574  0.7644  0.1036 -0.6364
 
              Baa    -0.1239   -66.109   -23.589   -22.052 -0.1871  0.9784 -0.0874
    12 H(1)   Bbb    -0.1197   -63.884   -22.795   -21.309  0.4476  0.1641  0.8790
              Bcc     0.2436   129.993    46.385    43.361  0.8744  0.1253 -0.4687
 
              Baa    -0.0273    -3.668    -1.309    -1.223  0.1657 -0.4942  0.8534
    13 C(13)  Bbb    -0.0257    -3.446    -1.230    -1.150  0.2135  0.8628  0.4582
              Bcc     0.0530     7.114     2.538     2.373  0.9628 -0.1063 -0.2485
 
              Baa    -0.0065    -3.458    -1.234    -1.154  0.3697  0.9221 -0.1141
    14 H(1)   Bbb    -0.0028    -1.517    -0.541    -0.506  0.5984 -0.1424  0.7885
              Bcc     0.0093     4.976     1.775     1.660  0.7108 -0.3598 -0.6044
 
              Baa    -0.0044    -2.368    -0.845    -0.790  0.2396  0.7927  0.5605
    15 H(1)   Bbb    -0.0016    -0.863    -0.308    -0.288 -0.5218 -0.3817  0.7629
              Bcc     0.0061     3.231     1.153     1.078  0.8187 -0.4752  0.3222
 
              Baa    -0.0066    -3.517    -1.255    -1.173 -0.0383  0.2505  0.9673
    16 H(1)   Bbb    -0.0030    -1.600    -0.571    -0.534 -0.3902  0.8874 -0.2453
              Bcc     0.0096     5.117     1.826     1.707  0.9199  0.3869 -0.0638
 
              Baa    -0.0079    -1.064    -0.380    -0.355 -0.2216  0.0321  0.9746
    17 C(13)  Bbb    -0.0055    -0.739    -0.264    -0.247  0.9505  0.2303  0.2085
              Bcc     0.0134     1.803     0.643     0.601 -0.2178  0.9726 -0.0816
 
              Baa    -0.0063    -3.384    -1.208    -1.129  0.3344  0.3560  0.8726
    18 H(1)   Bbb    -0.0028    -1.493    -0.533    -0.498  0.9190  0.0823 -0.3857
              Bcc     0.0091     4.877     1.740     1.627 -0.2091  0.9309 -0.2996
 
              Baa    -0.0028    -1.488    -0.531    -0.496  0.1379  0.3861  0.9121
    19 H(1)   Bbb    -0.0018    -0.969    -0.346    -0.323  0.8619  0.4069 -0.3025
              Bcc     0.0046     2.457     0.877     0.819 -0.4879  0.8279 -0.2767
 
              Baa    -0.0043    -2.292    -0.818    -0.764  0.3433 -0.0889  0.9350
    20 H(1)   Bbb    -0.0030    -1.622    -0.579    -0.541  0.8953  0.3318 -0.2971
              Bcc     0.0073     3.914     1.397     1.306 -0.2839  0.9391  0.1935
 

 ---------------------------------------------------------------------------------

 Calling FoFJK, ICntrl=  10100127 FMM=F ISym2X=0 I1Cent= 0 IOpClX= 1 NMat=1 NMatS=1 NMatT=0.
 ***** Axes restored to original set *****
 -------------------------------------------------------------------
 Center     Atomic                   Forces (Hartrees/Bohr)
 Number     Number              X              Y              Z
 -------------------------------------------------------------------
      1        6          -0.000124835   -0.000663856   -0.000234101
      2        1           0.000053074    0.000057151   -0.000182001
      3        6          -0.002281410   -0.000551725    0.001013149
      4        1           0.000501588   -0.000744509    0.000884561
      5        1           0.000174653    0.000652746   -0.000291694
      6        6           0.000433383    0.005375764   -0.001044849
      7        1          -0.001549052    0.000345191    0.000202372
      8        1           0.000268594   -0.000285167    0.000348856
      9        1           0.000036752    0.000134024   -0.000811510
     10        8          -0.010434259   -0.003764951   -0.008709948
     11        8           0.005775084   -0.001086852    0.011173168
     12        1           0.005268198   -0.000894719   -0.002577521
     13        6           0.001020883   -0.000010448   -0.000513745
     14        1           0.000470679   -0.000292393    0.000544851
     15        1          -0.000019825   -0.000324236   -0.000282473
     16        1           0.000113314    0.000503372   -0.000034197
     17        6          -0.000591259    0.001304531    0.000278631
     18        1           0.001243056    0.000215399   -0.000496599
     19        1          -0.000395491   -0.000115647   -0.000185022
     20        1           0.000036872    0.000146324    0.000918072
 -------------------------------------------------------------------
 Cartesian Forces:  Max     0.011173168 RMS     0.002719648
 FormGI is forming the generalized inverse of G from B-inverse, IUseBI=4.

 GradGradGradGradGradGradGradGradGradGradGradGradGradGradGradGradGradGrad
 Berny optimization.
 Internal  Forces:  Max     0.015065131 RMS     0.002057437
 Search for a saddle point.
 Step number   1 out of a maximum of  120
 All quantities printed in internal units (Hartrees-Bohrs-Radians)
 Swapping is turned off.
 Second derivative matrix not updated -- analytic derivatives used.
 ITU=  0
     Eigenvalues ---   -0.07676   0.00214   0.00261   0.00314   0.00405
     Eigenvalues ---    0.00735   0.01695   0.02366   0.03048   0.03457
     Eigenvalues ---    0.03594   0.04102   0.04253   0.04555   0.04635
     Eigenvalues ---    0.04643   0.04709   0.04857   0.07219   0.08488
     Eigenvalues ---    0.08566   0.09373   0.10813   0.11993   0.12150
     Eigenvalues ---    0.12473   0.13177   0.13336   0.14392   0.15004
     Eigenvalues ---    0.16437   0.17090   0.18002   0.18090   0.18691
     Eigenvalues ---    0.18963   0.27965   0.28132   0.29149   0.31199
     Eigenvalues ---    0.32590   0.33207   0.33377   0.33461   0.33506
     Eigenvalues ---    0.33660   0.33963   0.34104   0.34448   0.34533
     Eigenvalues ---    0.34550   0.34791   0.36420   0.44874
 Eigenvectors required to have negative eigenvalues:
                          R13       R7        R12       D7        D2
   1                   -0.67856   0.67535   0.15353  -0.07760   0.07758
                          A20       D4        D5        D1        D8
   1                   -0.07585  -0.07583   0.06762  -0.06587   0.06585
 RFO step:  Lambda0=7.666764771D-05 Lambda=-1.17190953D-03.
 Linear search not attempted -- option 19 set.
 Iteration  1 RMS(Cart)=  0.06610796 RMS(Int)=  0.00078360
 Iteration  2 RMS(Cart)=  0.00130872 RMS(Int)=  0.00001254
 Iteration  3 RMS(Cart)=  0.00000078 RMS(Int)=  0.00001253
 Variable       Old X    -DE/DX   Delta X   Delta X   Delta X     New X
                                 (Linear)    (Quad)   (Total)
    R1        2.06587  -0.00018   0.00000  -0.00046  -0.00046   2.06541
    R2        2.84291   0.00161   0.00000  -0.00003  -0.00003   2.84289
    R3        2.89877   0.00155   0.00000   0.00557   0.00557   2.90434
    R4        2.88257   0.00141   0.00000   0.00374   0.00374   2.88631
    R5        2.06032  -0.00117   0.00000  -0.00363  -0.00363   2.05669
    R6        2.05475  -0.00063   0.00000  -0.00208  -0.00208   2.05267
    R7        2.55929  -0.00056   0.00000   0.01968   0.01968   2.57897
    R8        2.06604  -0.00131   0.00000  -0.00361  -0.00361   2.06243
    R9        2.05677  -0.00045   0.00000  -0.00055  -0.00055   2.05622
   R10        2.06011  -0.00058   0.00000  -0.00232  -0.00232   2.05780
   R11        2.66831   0.00576   0.00000   0.01359   0.01359   2.68189
   R12        2.61243   0.01507   0.00000   0.04850   0.04850   2.66093
   R13        2.20307   0.00541   0.00000  -0.00819  -0.00819   2.19488
   R14        2.06294  -0.00064   0.00000  -0.00206  -0.00206   2.06089
   R15        2.06129  -0.00032   0.00000  -0.00105  -0.00105   2.06024
   R16        2.05921  -0.00044   0.00000  -0.00126  -0.00126   2.05795
   R17        2.05962  -0.00130   0.00000  -0.00311  -0.00311   2.05652
   R18        2.05984  -0.00042   0.00000  -0.00125  -0.00125   2.05859
   R19        2.06574  -0.00081   0.00000  -0.00258  -0.00258   2.06316
    A1        1.89197  -0.00037   0.00000  -0.00216  -0.00215   1.88982
    A2        1.88404   0.00005   0.00000  -0.00522  -0.00522   1.87882
    A3        1.89694  -0.00023   0.00000  -0.00263  -0.00263   1.89431
    A4        1.91495  -0.00010   0.00000   0.00161   0.00159   1.91655
    A5        1.94196   0.00109   0.00000   0.00613   0.00612   1.94808
    A6        1.93250  -0.00048   0.00000   0.00178   0.00176   1.93426
    A7        2.01280   0.00010   0.00000   0.00589   0.00588   2.01868
    A8        2.03065  -0.00084   0.00000  -0.00117  -0.00121   2.02944
    A9        1.87068   0.00228   0.00000   0.00777   0.00775   1.87844
   A10        1.96822   0.00003   0.00000   0.00044   0.00046   1.96868
   A11        1.76675  -0.00068   0.00000  -0.00675  -0.00676   1.75999
   A12        1.77223  -0.00074   0.00000  -0.00855  -0.00853   1.76370
   A13        1.91890  -0.00042   0.00000  -0.00153  -0.00153   1.91737
   A14        1.91453  -0.00051   0.00000   0.00134   0.00131   1.91584
   A15        1.92910   0.00140   0.00000   0.00759   0.00758   1.93668
   A16        1.92557  -0.00032   0.00000  -0.00229  -0.00230   1.92327
   A17        1.84646  -0.00092   0.00000  -0.00951  -0.00951   1.83695
   A18        1.92846   0.00076   0.00000   0.00409   0.00407   1.93253
   A19        1.88860   0.00270   0.00000  -0.00738  -0.00738   1.88122
   A20        1.81468   0.00530   0.00000   0.00401   0.00401   1.81869
   A21        1.92359   0.00056   0.00000   0.00524   0.00524   1.92884
[...]
 00319,0.00034728,0.00005670,-0.00019062,-0.00002016,-0.00006053,-0.000
 04761,-0.00009198,0.00002766,0.00001706,-0.20218416,-0.00664979,-0.132
 24216,-0.01731813,-0.00087799,-0.01753870,0.21556222,0.00016557,-0.000
 20450,-0.00021077,-0.00005173,0.00002926,-0.00000494,-0.00075084,-0.00
 000875,0.00023770,0.00020849,-0.00003193,-0.00013898,0.00011267,0.0000
 6620,-0.00008627,-0.01564434,-0.05177876,-0.01414071,-0.00716497,0.001
 05640,-0.00841776,0.00442413,0.05703130,-0.00013946,0.00009416,0.00014
 298,0.00002528,-0.00002095,-0.00000799,0.00045283,-0.00001643,-0.00016
 327,-0.00011054,0.00004408,0.00008064,-0.00006634,-0.00004723,0.000066
 16,-0.13089777,-0.00607956,-0.16518205,0.01114831,-0.00057727,0.010727
 05,0.14816955,0.00222596,0.17662192,0.00003452,0.00012620,-0.00000290,
 -0.00003681,-0.00000838,-0.00002245,0.00011722,-0.00015256,0.00017641,
 -0.00001326,-0.00000984,-0.00010540,0.00000138,0.00001724,-0.00009726,
 -0.06980846,0.03109341,0.05482032,-0.00622398,0.01339500,0.02352733,0.
 00795163,-0.01358565,-0.01943112,0.06637973,0.00029688,-0.00021020,-0.
 00040560,-0.00002118,0.00001308,0.00001493,-0.00147551,0.00012244,0.00
 110993,0.00011549,-0.00005245,-0.00014814,0.00015671,0.00002872,-0.000
 16922,0.03296735,-0.11284814,-0.10623013,-0.00304965,0.00828250,0.0084
 5572,-0.00066154,0.00141480,-0.00035607,-0.03836768,0.13975347,0.00005
 874,-0.00012527,-0.00007485,0.00001108,0.00002490,0.00002385,-0.000777
 98,-0.00000340,0.00014691,0.00010353,-0.00004236,0.00002052,0.00013469
 ,0.00000771,-0.00004149,0.05573492,-0.11463497,-0.23153650,0.00201733,
 -0.00686067,-0.00975856,0.00661411,-0.00927661,-0.01426003,-0.06018603
 ,0.12122014,0.24081605,-0.00421948,0.00277481,0.00501299,0.00016080,-0
 .00010058,-0.00035710,0.02161507,-0.00432671,-0.01334002,-0.00197708,0
 .00023588,0.00187716,-0.00261265,0.00032158,0.00146996,-0.06681987,0.0
 1016986,-0.00523035,0.00888766,-0.02504449,0.00219201,-0.00620626,0.02
 745942,-0.00875113,0.00054687,0.01333123,-0.00568178,0.21708035,0.0008
 6804,-0.00108934,-0.00111130,-0.00010007,0.00006350,0.00006611,-0.0034
 5204,0.00034615,0.00201368,-0.00004901,-0.00005590,-0.00010553,0.00051
 105,0.00019609,-0.00022258,-0.01771268,-0.22701870,0.00069076,0.001324
 59,-0.03311206,0.01319945,0.00144769,-0.00108025,0.00128155,0.00798872
 ,-0.04039023,0.00873695,-0.00994355,0.35123425,-0.00466679,0.00230680,
 0.00494150,0.00019647,-0.00027028,-0.00031751,0.03142131,-0.00179479,-
 0.01575374,-0.00488033,0.00072295,0.00299251,-0.00393256,0.00017830,0.
 00271096,-0.00095259,0.02660388,-0.06621639,-0.00531344,0.02304045,-0.
 00340979,-0.00572596,0.02464862,-0.00866173,-0.00164650,-0.02059695,0.
 01193298,0.12289907,-0.03905729,0.18443807,0.01281746,-0.00309920,-0.0
 0827294,-0.00043235,0.00029172,-0.00013838,-0.13072283,0.01604862,0.07
 672471,0.00965039,-0.00211602,-0.00558780,0.00894059,-0.00033278,-0.00
 614872,-0.02535070,0.01463126,-0.02552851,0.00380860,-0.00479793,0.003
 13811,0.00207067,0.00458977,-0.00026002,0.00171365,-0.00562434,0.00099
 872,-0.10804969,0.01328147,-0.07653204,0.13801348,-0.00069270,-0.00014
 747,0.00035402,0.00008847,0.00007974,0.00004691,0.01507415,0.00089014,
 -0.00773123,-0.00094070,0.00014091,0.00000527,-0.00089350,0.00106161,0
 .00029158,0.03244044,0.00223002,0.03551854,0.00058412,0.00281067,-0.00
 131919,0.00251527,-0.00625977,0.00311158,-0.00023852,0.00402673,0.0010
 6137,-0.01551522,-0.04859249,-0.02023367,-0.02732952,0.05538093,0.0001
 3133,-0.00144432,-0.00238296,0.00053617,0.00027542,0.00064700,0.033156
 02,-0.00525013,-0.01709831,0.00107469,-0.00025759,-0.00018236,0.000472
 06,-0.00033370,-0.00042587,-0.02300986,0.00854520,-0.02483131,-0.00004
 995,-0.00396564,0.00128343,0.00068126,0.00452402,0.00088815,0.00269312
 ,-0.00219710,0.00338677,-0.09204326,0.01061933,-0.14073475,0.06766273,
 -0.00805688,0.23333919,-0.02672296,0.00188177,0.01259921,0.00088064,-0
 .00014938,0.00015669,0.09580640,-0.01156647,-0.06462008,-0.01118827,0.
 00292339,0.00531796,-0.01414830,0.00087187,0.01000218,0.00314936,-0.01
 231408,0.00581961,0.00070049,0.00356326,-0.00123224,0.00001917,0.00013
 380,-0.00017561,-0.00049690,0.00212663,0.00082370,-0.05636500,0.005713
 64,-0.04916776,0.08561799,-0.00470944,0.00721206,-0.07547841,-0.004008
 15,-0.00068311,0.00159595,0.00009535,0.00022842,0.00004440,-0.01641751
 ,-0.01832669,0.00862185,-0.00127774,-0.00015455,0.00218494,0.01246641,
 -0.00401669,-0.00740614,0.00247764,0.00208003,-0.00157259,-0.00041451,
 -0.00055487,0.00059624,-0.00022453,-0.00038741,0.00039161,-0.00015828,
 -0.00032279,-0.00021527,0.00268863,-0.00111776,0.00684454,-0.00835594,
 -0.01152529,-0.00446828,0.01481342,0.03535990,0.00273759,-0.00089700,-
 0.00225347,-0.00123766,0.00001770,-0.00016165,-0.06190103,0.00626580,0
 .01048756,0.01661748,-0.00239859,-0.01196346,0.00621215,0.00020046,-0.
 00421608,-0.00455272,0.00474689,-0.00245715,0.00047691,-0.00143697,0.0
 0068354,0.00020827,0.00051430,-0.00016137,0.00026707,-0.00089243,-0.00
 074724,-0.00582180,0.00322923,0.03070048,-0.02968313,-0.00320342,-0.05
 569794,0.07784845,-0.00643609,0.03402436,-0.14323423,0.01655247,0.0437
 2533,-0.00223969,0.00095500,0.00105153,-0.03605884,-0.00520692,0.00425
 762,0.00206150,0.00027762,0.00009958,0.00190589,0.00082254,-0.00003171
 ,0.00014053,-0.00016413,0.00004515,-0.00001655,0.00004682,-0.00005303,
 0.00000781,-0.00000242,0.00000733,-0.00001223,0.00003966,0.00000004,-0
 .00054479,0.00001380,-0.00045450,0.00025927,0.00022178,0.00094738,-0.0
 0016118,-0.00110290,-0.00168086,0.47086002,0.00540401,-0.07526663,-0.0
 0046548,-0.00927869,0.00154708,0.00450123,-0.01306883,0.00045870,0.004
 56125,0.00062184,-0.00006132,-0.00009880,-0.00000547,0.00027613,-0.000
 28629,0.00025634,-0.00145210,0.00038802,0.00006297,0.00023578,-0.00018
 519,-0.00003297,0.00018435,-0.00008104,-0.00009343,0.00019600,0.000131
 47,-0.00245223,0.00062779,-0.00257252,0.00459470,-0.00000495,0.0011840
 9,-0.00573075,0.00019327,0.00183054,0.01114376,0.57812756,0.03318544,-
 0.00443228,-0.09350080,0.03139435,-0.00434783,-0.01501705,-0.00796702,
 0.00190293,0.00462869,-0.00014050,-0.00047129,0.00007189,0.00001076,0.
 00014495,-0.00018985,0.00024043,-0.00148478,0.00042653,0.00011287,0.00
 029899,-0.00007160,-0.00008845,0.00014358,-0.00009511,-0.00001950,0.00
 021157,0.00008889,-0.00263749,0.00065846,-0.00280996,0.00462353,-0.000
 19662,0.00133600,-0.00628903,0.00033547,0.00252579,0.04828745,-0.00606
 511,0.54501813,-0.00159301,-0.01015863,0.02937639,-0.00534247,0.000802
 73,0.00295303,0.00209822,0.00023044,0.00153991,-0.00026023,0.00012939,
 -0.00051077,-0.00014234,-0.00002818,-0.00006088,-0.00005690,0.00004139
 ,-0.00000253,0.00001117,-0.00000835,0.00000351,0.00000570,0.00000090,0
 .00000232,0.00001186,-0.00000911,-0.00000926,0.00014678,-0.00001765,0.
 00020281,-0.00014404,-0.00000779,-0.00033940,0.00024700,0.00009359,0.0
 0001625,-0.04668077,0.00272260,-0.00855962,0.05172302,-0.00038158,0.00
 035310,-0.00426072,0.00081862,0.00060680,-0.00074215,-0.00001979,-0.00
 017369,0.00041107,-0.00018669,0.00010293,0.00003533,0.00001720,-0.0000
 3591,0.00010145,-0.00000117,0.00003455,-0.00000735,0.00000206,0.000005
 28,0.00001617,-0.00000797,-0.00000492,0.00000228,0.00000827,-0.0000032
 9,-0.00000808,0.00002798,-0.00002197,0.00002954,0.00002220,-0.00002582
 ,-0.00007056,-0.00009151,-0.00002540,-0.00003564,0.00241670,-0.0757982
 6,0.08021503,-0.00319071,0.07746553,0.00072132,0.00472555,-0.01498945,
 0.00304431,-0.00068356,0.00019876,-0.00139900,-0.00058207,0.00093995,0
 .00065435,0.00032832,0.00039078,0.00007906,-0.00001002,-0.00000320,0.0
 0000342,0.00014049,-0.00004761,-0.00001625,-0.00002267,-0.00000076,0.0
 0001109,-0.00001477,0.00000922,-0.00000673,-0.00001870,-0.00000539,0.0
 0014037,-0.00006297,0.00018131,-0.00046300,0.00002993,0.00004494,0.000
 50329,-0.00017581,-0.00018397,-0.00825184,0.08012643,-0.28176041,0.005
 61973,-0.08842585,0.30758335,-0.02274695,-0.01481990,-0.01440073,0.001
 37158,-0.00019999,0.00003484,-0.00336520,0.00124917,0.00288328,0.00021
 499,0.00001983,-0.00005423,0.00024267,-0.00005779,-0.00007908,0.000166
 11,-0.00077542,0.00020789,0.00004344,0.00013376,-0.00005889,-0.0000371
 0,0.00008452,-0.00004868,-0.00003109,0.00011153,0.00005982,-0.00127169
 ,0.00033316,-0.00139728,0.00204046,0.00007047,0.00094920,-0.00247314,-
 0.00012966,0.00054360,-0.17156373,-0.09476901,-0.09256416,-0.00051196,
 0.00032010,0.00009714,0.18962296,0.00424878,0.00100503,0.00192801,-0.0
 0044720,-0.00011905,0.00027084,-0.00003807,0.00038196,0.00016260,-0.00
 011994,-0.00001096,-0.00005222,0.00017510,0.00033078,0.00009976,0.0000
 0545,-0.00001503,0.00001031,0.00000459,-0.00000365,0.00001046,-0.00000
 613,-0.00000240,-0.00000184,0.00000333,0.00000670,0.00000032,0.0000085
 2,0.00000510,-0.00003108,-0.00018961,0.00005405,0.00018061,0.00027669,
 0.00007218,-0.00030746,-0.09505759,-0.11887225,-0.06822833,0.00864168,
 0.00572962,0.00562611,0.10419757,0.12567860,0.01309430,0.00761386,0.00
 619755,-0.00081791,0.00036343,0.00081063,0.00107646,-0.00062578,0.0001
 5398,0.00025187,0.00010998,0.00029973,-0.00006797,0.00000130,-0.000075
 71,-0.00003070,0.00023063,-0.00006243,-0.00002058,-0.00004655,0.000015
 80,0.00001101,-0.00002369,0.00001279,0.00000087,-0.00003144,-0.0000124
 0,0.00043612,-0.00009517,0.00037931,-0.00097620,0.00008831,0.00003403,
 0.00135217,-0.00017684,-0.00049058,-0.09263730,-0.06812140,-0.11310663
 ,-0.02119875,-0.01711853,-0.01460783,0.09898145,0.07610575,0.12035613,
 -0.00813652,0.02822586,-0.00196863,0.00130341,-0.00047252,-0.00020353,
 0.00116017,0.00177843,0.00027512,-0.00011396,-0.00010494,0.00000294,-0
 .00029594,-0.00064133,-0.00011507,-0.00001185,0.00024873,-0.00007095,-
 0.00000771,-0.00002723,0.00005483,-0.00000639,-0.00003598,0.00001141,0
 .00002445,-0.00003230,-0.00002677,0.00031817,-0.00012446,0.00037740,-0
 .00053797,-0.00011528,-0.00027972,0.00063433,-0.00001811,-0.00013829,-
 0.06382902,0.06384776,-0.00077325,-0.00112231,0.00057754,-0.00029018,0
 .00641500,-0.02229956,0.00121279,0.06997568,-0.00003613,-0.00295649,0.
 00006879,0.00018006,0.00036630,-0.00048817,-0.00098592,0.00064636,0.00
 017053,0.00000649,-0.00000655,-0.00002356,0.00037409,0.00037454,0.0001
 7828,-0.00004583,-0.00002203,0.00001935,0.00000829,-0.00000848,-0.0000
 3289,0.00001667,0.00000811,0.00000235,-0.00001036,-0.00000223,0.000002
 79,0.00007678,0.00003474,0.00005645,-0.00017839,0.00008432,0.00005559,
 0.00025505,0.00002846,-0.00020651,0.06504366,-0.29723180,0.00178240,0.
 00181356,-0.00923450,-0.00052302,0.00444692,-0.01525719,0.00094558,-0.
 07201698,0.32192730,0.00322618,-0.01482303,-0.00091584,-0.00072152,-0.
 00024242,0.00026975,-0.00078193,0.00008404,-0.00005059,0.00001374,0.00
 011684,0.00001280,0.00005171,0.00015471,0.00024191,-0.00000450,-0.0000
 3822,0.00001568,0.00000371,0.00000204,-0.00002346,0.00000520,0.0000111
 2,-0.00000078,-0.00001133,0.00000170,0.00000576,-0.00003678,0.00002555
 ,-0.00005056,0.00011369,0.00003450,0.00001916,-0.00015934,-0.00004284,
 -0.00004052,-0.00100813,0.00204103,-0.04801130,-0.00801547,0.03074692,
 0.00105256,0.00515947,-0.01623221,-0.00025744,-0.00140120,-0.00118050,
 0.04803209,-0.08244407,0.02537480,-0.00150668,-0.00100114,0.00295750,0
 .00007384,0.00599673,-0.02572659,-0.00041561,0.00029464,0.00043289,0.0
 0059620,-0.00380233,-0.00360937,-0.00245512,0.00040310,-0.00028049,-0.
 00021015,-0.00017628,0.00000877,-0.00018034,0.00002206,0.00007734,0.00
 005088,-0.00021390,0.00005785,0.00012946,-0.00072743,0.00011681,-0.000
 43589,0.00147617,0.00035278,0.00042303,-0.00073724,-0.00097481,0.00003
 746,-0.01275535,0.03408396,0.00268105,0.00156703,-0.00032721,-0.000904
 23,0.00126204,0.00068106,-0.00036529,-0.00572602,0.00128485,0.00281111
 ,0.57965928,0.02860095,-0.17961552,-0.00031961,0.00342247,-0.01396420,
 -0.00025415,-0.00257456,-0.02741952,-0.00222114,0.00104609,0.00199417,
 0.00101821,-0.00109575,-0.00031106,-0.00149491,0.00013304,0.00060448,-
 0.00029674,-0.00005394,-0.00017479,0.00009253,-0.00004528,-0.00007349,
 0.00006272,-0.00005883,-0.00007822,0.00002962,0.00082810,-0.00030606,0
 .00085526,-0.00245345,-0.00061492,-0.00012229,0.00272144,-0.00004530,-
 0.00119551,0.00653939,-0.00893077,-0.00163417,-0.00148773,0.00084047,0
 .00049782,-0.00122017,0.00077655,0.00058178,-0.00055845,0.00099753,0.0
 0015642,0.02789279,0.47466010,-0.00179368,0.00260235,-0.08145195,-0.00
 786394,0.03129055,0.00138895,0.00349755,-0.01790891,-0.00009252,0.0006
 2257,-0.00100966,0.00067609,-0.00259529,-0.00234825,-0.00098263,-0.000
 01574,-0.00016488,-0.00008976,-0.00020064,0.00005764,0.00029714,-0.000
 10995,-0.00008437,-0.00000223,0.00022890,0.00008283,-0.00007428,-0.000
 02588,0.00009216,-0.00018998,-0.00019933,-0.00071998,0.00031535,0.0002
 1509,0.00041649,0.00002536,0.00648004,-0.01613084,-0.00063925,0.000005
 05,-0.00116530,0.00054202,-0.00108868,0.00048544,0.00026002,0.00300468
 ,-0.00110901,-0.00114445,-0.00224050,0.00450172,0.57145496,-0.00642101
 ,0.00008358,0.00269325,0.00001010,0.00006075,-0.00033555,0.00011846,-0
 .00052883,-0.00006049,-0.00001686,0.00009956,0.00002597,0.00014302,0.0
 0004930,-0.00010740,-0.00004359,0.00008741,-0.00023760,-0.00015238,-0.
 00002622,-0.00000743,-0.00002029,-0.00000924,0.00004346,-0.00004028,0.
 00001127,0.00001709,0.00006649,-0.00021032,0.00011857,-0.00089834,-0.0
 0042021,-0.00006755,0.00065042,-0.00003673,-0.00013698,0.00034742,0.00
 236241,-0.00052299,0.00007304,-0.00011395,-0.00000412,0.00050209,-0.00
 010441,-0.00002399,-0.00030779,0.00010027,0.00051503,-0.25512250,0.030
 61589,0.10860296,0.27609931,0.02858871,-0.00394577,-0.01618267,-0.0002
 4813,0.00139100,0.00040938,0.00140973,0.00174330,-0.00003593,-0.000103
 80,-0.00010760,-0.00015687,-0.00007095,0.00017538,0.00029849,-0.000160
 78,0.00025482,-0.00003368,-0.00004714,0.00002164,-0.00000294,0.0000326
 9,-0.00003949,0.00001317,0.00001602,-0.00001230,-0.00004352,-0.0000601
 0,0.00002788,-0.00012953,0.00012432,0.00023827,0.00056330,-0.00017282,
 -0.00085223,-0.00032521,0.00055240,-0.00712143,0.00017977,-0.00022109,
 -0.00001211,-0.00010895,-0.00011828,0.00010090,0.00032494,0.00205341,-
 0.00027937,-0.00094680,0.02799552,-0.05170570,-0.01486659,-0.03424980,
 0.05748221,-0.00141709,0.00053227,-0.00078303,-0.00035073,-0.00038571,
 0.00037497,0.00068494,0.00002521,-0.00016900,0.00005907,-0.00003567,-0
 .00014484,-0.00018174,0.00005477,0.00002082,-0.00038584,-0.00051446,0.
 00050415,0.00009523,0.00002395,-0.00045809,0.00016334,0.00014722,-0.00
 007801,-0.00005265,-0.00000091,0.00004138,-0.00018349,0.00020179,-0.00
 042216,0.00050258,0.00067091,-0.00000960,-0.00028551,-0.00043175,0.000
 22445,-0.00030146,-0.00040451,0.00048162,-0.00033657,0.00011621,0.0004
 6852,0.00028140,0.00012969,0.00000236,0.00022295,0.00009665,0.00048811
 ,0.10828634,-0.01626279,-0.10599216,-0.11902647,0.01730541,0.11065977,
 0.00522166,0.00538009,0.00548678,0.00022762,-0.00073993,0.00012389,-0.
 00007596,0.00147278,0.00036321,-0.00007896,0.00010945,0.00013042,0.000
 59099,0.00031265,-0.00000254,0.00024125,0.00013843,-0.00024558,-0.0000
 8276,-0.00002310,0.00020474,-0.00008696,-0.00006181,0.00002714,0.00002
 722,0.00000838,0.00000808,-0.00005883,-0.00009530,0.00006916,-0.000116
 86,-0.00047856,-0.00006321,0.00006194,0.00039775,0.00003990,0.00105128
 ,0.00045392,0.00034976,-0.00004969,-0.00003976,0.00004409,0.00017498,-
 0.00000197,-0.00019849,0.00021474,-0.00009590,0.00001787,-0.17859037,-
 0.09806800,-0.09027983,-0.01860163,-0.01470347,-0.01519261,0.19148991,
 -0.02343349,-0.01687937,-0.01702159,-0.00034929,0.00113596,0.00054994,
 0.00369754,-0.00647391,0.00080941,0.00004262,0.00018401,-0.00003085,-0
 .00160910,-0.00111204,-0.00100806,0.00000238,-0.00043475,0.00020134,0.
 00002862,0.00005854,-0.00010309,0.00002580,0.00006276,-0.00003747,-0.0
 0000773,0.00005397,0.00001952,-0.00045851,0.00019671,-0.00054972,0.000
 81275,0.00015321,0.00029629,-0.00048741,0.00004570,0.00038396,-0.00175
 530,0.00147300,0.00008327,0.00017368,-0.00002507,-0.00000969,0.0010409
 1,0.00017113,-0.00000976,0.00002920,0.00029227,0.00045439,-0.09626717,
 -0.11932294,-0.06674210,0.00318021,0.00192409,0.00312291,0.10620647,0.
 13236311,0.00041611,0.00128639,-0.00074180,0.00045916,-0.00019223,0.00
 039838,0.00036752,-0.00055487,0.00050414,0.00022309,0.00025909,0.00042
 526,-0.00012735,-0.00004001,0.00034857,0.00009444,0.00006681,-0.000058
 85,0.00002471,-0.00003439,-0.00001384,-0.00001298,0.00000107,0.0000101
 4,-0.00006246,-0.00001341,0.00003250,-0.00007383,0.00000227,-0.0000465
 8,0.00017427,0.00019741,0.00009165,-0.00013967,-0.00004911,-0.00001994
 ,-0.00038914,0.00001358,-0.00023965,-0.00008269,-0.00008008,-0.0000814
 5,0.00041772,-0.00020944,0.00016247,0.00019449,0.00020865,0.00005304,-
 0.08952527,-0.06765253,-0.11004738,0.01067186,0.00922725,0.00813756,0.
 09922608,0.07427513,0.11533672,-0.00188422,0.00325357,-0.00826307,0.00
 014618,0.00176381,0.00015947,0.00015304,-0.00071666,0.00073146,0.00026
 427,-0.00009923,0.00000053,-0.00011720,0.00002431,-0.00002912,-0.00026
 442,-0.00030703,0.00034847,0.00003356,0.00002603,-0.00014531,0.0000730
 5,0.00005040,-0.00005782,0.00006838,0.00001835,-0.00002948,0.00003056,
 0.00010610,-0.00017915,-0.00015595,-0.00000603,-0.00008611,0.00000368,
 0.00008608,0.00014733,0.00046265,-0.00012291,-0.00132363,0.00001992,0.
 00014968,0.00041718,-0.00005547,0.00002172,-0.00007985,0.00004952,-0.0
 0023719,0.00022250,-0.04938443,0.00581599,-0.01624340,0.00361433,-0.01
 061644,0.02741831,-0.00155958,0.00912783,-0.02185606,0.04850216,0.0026
 3333,-0.01415337,0.03258113,0.00176601,-0.00643227,-0.00060457,0.00080
 614,0.00179699,0.00145419,-0.00049632,-0.00001108,-0.00092586,0.000036
 21,0.00037783,-0.00037476,-0.00010611,-0.00015370,0.00008234,-0.000020
 44,0.00006193,-0.00001947,0.00001946,0.00001849,-0.00001160,0.00004306
 ,0.00002144,-0.00002464,-0.00002140,0.00005254,-0.00005093,0.00008040,
 0.00002010,-0.00007736,-0.00005908,0.00000414,0.00014597,-0.00133635,0
 .00141985,0.00090399,0.00047928,0.00022268,-0.00083656,0.00008227,-0.0
 0003206,-0.00011641,-0.00031377,0.00023873,-0.00032326,0.00586872,-0.0
 7731081,0.08272073,-0.00095091,0.00071650,-0.00439119,-0.00017213,0.00
 613361,-0.01671157,-0.00833838,0.08700846,0.00025422,-0.00001593,-0.00
 083236,0.00003875,-0.00019679,0.00166143,-0.00017833,-0.00051126,0.000
 94934,0.00045127,0.00058797,0.00023548,0.00015576,0.00005370,0.0002923
 9,0.00018431,0.00041922,-0.00031372,-0.00003542,-0.00004451,0.00011768
 ,-0.00004804,-0.00005470,0.00005350,-0.00006968,-0.00003671,0.00001514
 ,0.00015524,-0.00016247,0.00033603,-0.00014826,0.00005067,-0.00002257,
 0.00021884,-0.00005676,-0.00027820,-0.00009349,-0.00036643,0.00086408,
 -0.00060307,0.00024026,0.00026866,0.00007590,0.00005268,-0.00007179,-0
 .00008900,-0.00002374,0.00030408,-0.01685028,0.08365778,-0.27425332,-0
 .00215762,0.00451098,-0.01334684,-0.00010885,0.00531620,-0.01425095,0.
 01884776,-0.09342015,0.29827194\\-0.00000010,0.,-0.00000027,-0.0000000
 8,-0.00000006,0.00000002,0.00000113,-0.00000036,-0.00000040,0.,0.00000
 031,0.00000029,-0.00000031,0.00000005,-0.00000079,0.00000017,-0.000000
 23,0.00000134,0.00000068,0.00000052,0.00000026,0.00000014,0.00000012,-
 0.00000012,-0.00000002,-0.00000003,-0.00000007,0.00000161,-0.00000081,
 0.00000128,-0.00000118,0.00000166,-0.00000249,-0.00000084,-0.00000086,
 0.00000040,-0.00000002,-0.00000026,0.00000014,0.00000008,0.00000017,0.
 00000005,-0.00000004,-0.00000007,0.00000011,0.00000008,0.00000005,-0.0
 0000008,-0.00000019,-0.00000006,-0.00000033,-0.00000119,-0.00000012,-0
 .00000017,-0.00000015,-0.00000015,0.00000038,0.00000022,0.00000013,0.0
 0000046\\\@


 THE WHOLE OF SCIENCE IS NOTHING MORE THAN A REFINEMENT OF EVERYDAY THINKING.
                                                              -- A. EINSTEIN
 Job cpu time:       4 days 13 hours 33 minutes  8.8 seconds.
 Elapsed time:       0 days  2 hours 46 minutes 27.5 seconds.
 File lengths (MBytes):  RWF= 138775 Int=      0 D2E=      0 Chk=     25 Scr=      1
 Normal termination of Gaussian 16 at Mon Jun 10 15:59:38 2019.
