 Entering Gaussian System, Link 0=g16
 Initial command:
 /ichec/packages/gaussian/16b01/l1.exe "/localscratch/346541/Gau-79447.inp" -scrdir="/localscratch/346541/"
 Entering Link 1 = /ichec/packages/gaussian/16b01/l1.exe PID=     79836.
  
 Copyright (c) 1988-2017, Gaussian, Inc.  All Rights Reserved.
  
 This is part of the Gaussian(R) 16 program.  It is based on
 the Gaussian(R) 09 system (copyright 2009, Gaussian, Inc.),
 the Gaussian(R) 03 system (copyright 2003, Gaussian, Inc.),
 the Gaussian(R) 98 system (copyright 1998, Gaussian, Inc.),
 the Gaussian(R) 94 system (copyright 1995, Gaussian, Inc.),
 the Gaussian 92(TM) system (copyright 1992, Gaussian, Inc.),
 the Gaussian 90(TM) system (copyright 1990, Gaussian, Inc.),
 the Gaussian 88(TM) system (copyright 1988, Gaussian, Inc.),
 the Gaussian 86(TM) system (copyright 1986, Carnegie Mellon
 University), and the Gaussian 82(TM) system (copyright 1983,
 Carnegie Mellon University). Gaussian is a federally registered
 trademark of Gaussian, Inc.
  
 This software contains proprietary and confidential information,
 including trade secrets, belonging to Gaussian, Inc.
  
 This software is provided under written license and may be
 used, copied, transmitted, or stored only in accord with that
 written license.
  
 The following legend is applicable only to US Government
 contracts under FAR:
  
                    RESTRICTED RIGHTS LEGEND
  
 Use, reproduction and disclosure by the US Government is
 subject to restrictions as set forth in subparagraphs (a)
 and (c) of the Commercial Computer Software - Restricted
 Rights clause in FAR 52.227-19.
  
 Gaussian, Inc.
 340 Quinnipiac St., Bldg. 40, Wallingford CT 06492
  
  
 ---------------------------------------------------------------
 Warning -- This program may not be used in any manner that
 competes with the business of Gaussian, Inc. or will provide
 assistance to any competitor of Gaussian, Inc.  The licensee
 of this program is prohibited from giving any competitor of
 Gaussian, Inc. access to this program.  By using this program,
 the user acknowledges that Gaussian, Inc. is engaged in the
 business of creating and licensing software in the field of
 computational chemistry and represents and warrants to the
 licensee that it is not a competitor of Gaussian, Inc. and that
 it will not use this program in any manner prohibited above.
 ---------------------------------------------------------------
  

 Cite this work as:
 Gaussian 16, Revision B.01,
 M. J. Frisch, G. W. Trucks, H. B. Schlegel, G. E. Scuseria, 
 M. A. Robb, J. R. Cheeseman, G. Scalmani, V. Barone, 
 G. A. Petersson, H. Nakatsuji, X. Li, M. Caricato, A. V. Marenich, 
 J. Bloino, B. G. Janesko, R. Gomperts, B. Mennucci, H. P. Hratchian, 
 J. V. Ortiz, A. F. Izmaylov, J. L. Sonnenberg, D. Williams-Young, 
 F. Ding, F. Lipparini, F. Egidi, J. Goings, B. Peng, A. Petrone, 
 T. Henderson, D. Ranasinghe, V. G. Zakrzewski, J. Gao, N. Rega, 
 G. Zheng, W. Liang, M. Hada, M. Ehara, K. Toyota, R. Fukuda, 
 J. Hasegawa, M. Ishida, T. Nakajima, Y. Honda, O. Kitao, H. Nakai, 
 T. Vreven, K. Throssell, J. A. Montgomery, Jr., J. E. Peralta, 
 F. Ogliaro, M. J. Bearpark, J. J. Heyd, E. N. Brothers, K. N. Kudin, 
 V. N. Staroverov, T. A. Keith, R. Kobayashi, J. Normand, 
 K. Raghavachari, A. P. Rendell, J. C. Burant, S. S. Iyengar, 
 J. Tomasi, M. Cossi, J. M. Millam, M. Klene, C. Adamo, R. Cammi, 
 J. W. Ochterski, R. L. Martin, K. Morokuma, O. Farkas, 
 J. B. Foresman, and D. J. Fox, Gaussian, Inc., Wallingford CT, 2016.
 
 ******************************************
 Gaussian 16:  ES64L-G16RevB.01 20-Dec-2017
                11-Jun-2019 
 ******************************************
 %mem=80GB
 %nproc=40
 Will use up to   40 processors via shared memory.
 ----------------------------------------------------------------------
 # opt=(calcfc,ts,noeigentest,maxcyc=500) freq=noraman uB2PLYPD3/cc-pvt
 z
 ----------------------------------------------------------------------
 1/5=1,6=500,10=4,11=1,18=20,38=1/1,3;
 2/9=110,12=2,17=6,18=5,40=1/2;
 3/5=16,6=1,11=2,25=1,30=1,71=2,74=-60,116=2,140=1/1,2,3;
 4//1;
 5/5=2,38=5/2;
 8/6=3,8=1,10=1,19=11,30=-1/1;
 9/15=3,16=-3/6;
 11/6=1,8=1,15=11,17=12,24=-1,27=1,28=-2,29=300,32=6,42=3/1,2,10;
 10/6=2,21=1/2;
 8/6=4,8=1,10=1,19=11,30=-1/11,4;
 10/5=1,20=4/2;
 11/12=2,14=11,16=1,17=2,28=-2,42=3,76=2/2,10,12;
 6/7=2,8=2,9=2,10=2/1;
 7/10=1,12=2,25=1,44=2/1,2,3,16;
 1/5=1,6=500,10=4,11=1,18=20/3(2);
 2/9=110/2;
 99//99;
 2/9=110/2;
 3/5=16,6=1,11=2,25=1,30=1,71=1,74=-60,116=2/1,2,3;
 4/5=5,16=3,69=1/1;
 5/5=2,38=5/2;
 8/6=4,10=1/1;
 9/15=2,16=-3/6;
 10/5=1/2;
 7/12=2/1,2,3,16;
 1/5=1,6=500,11=1,18=20/3(-8);
 2/9=110/2;
 6/7=2,8=2,9=2,10=2/1;
 99/9=10/99;
 -------------------
 Title Card Required
 -------------------
 Symbolic Z-matrix:
 Charge =  0 Multiplicity = 2
 C                    -0.6735   -0.93882   0.54094 
 C                    -1.53905  -0.07408   0.06243 
 H                    -0.74067  -2.00734   0.69883 
 C                     2.54221  -0.46444  -0.88994 
 H                     1.79176  -1.22292  -1.12826 
 H                     2.88729   0.01537  -1.80401 
 H                     3.37925  -0.92153  -0.36219 
 O                     1.96894   0.56366  -0.11129 
 O                     1.5948    0.02126   1.11237 
 H                     0.5963   -0.41818   0.91805 
 C                    -1.25819   1.39657  -0.06814 
 H                    -0.26371   1.65335   0.28483 
 H                    -1.35154   1.70109  -1.11249 
 H                    -1.99972   1.96311   0.49873 
 C                    -2.90935  -0.51895  -0.39078 
 H                    -3.0519   -1.59034  -0.27116 
 H                    -3.67596   0.0051    0.18313 
 H                    -3.05381  -0.25872  -1.44112 
 
 Add virtual bond connecting atoms H10        and C1         Dist= 2.69D+00.

 GradGradGradGradGradGradGradGradGradGradGradGradGradGradGradGradGradGrad
 Berny optimization.
 Initialization pass.
                           ----------------------------
                           !    Initial Parameters    !
                           ! (Angstroms and Degrees)  !
 --------------------------                            --------------------------
 ! Name  Definition              Value          Derivative Info.                !
 --------------------------------------------------------------------------------
 ! R1    R(1,2)                  1.3137         calculate D2E/DX2 analytically  !
 ! R2    R(1,3)                  1.0822         calculate D2E/DX2 analytically  !
 ! R3    R(1,10)                 1.4233         calculate D2E/DX2 analytically  !
 ! R4    R(2,11)                 1.5029         calculate D2E/DX2 analytically  !
 ! R5    R(2,15)                 1.5103         calculate D2E/DX2 analytically  !
 ! R6    R(4,5)                  1.0933         calculate D2E/DX2 analytically  !
 ! R7    R(4,6)                  1.0885         calculate D2E/DX2 analytically  !
 ! R8    R(4,7)                  1.09           calculate D2E/DX2 analytically  !
 ! R9    R(4,8)                  1.4114         calculate D2E/DX2 analytically  !
 ! R10   R(8,9)                  1.3898         calculate D2E/DX2 analytically  !
 ! R11   R(9,10)                 1.1081         calculate D2E/DX2 analytically  !
 ! R12   R(11,12)                1.086          calculate D2E/DX2 analytically  !
 ! R13   R(11,13)                1.0918         calculate D2E/DX2 analytically  !
 ! R14   R(11,14)                1.0919         calculate D2E/DX2 analytically  !
 ! R15   R(15,16)                1.0874         calculate D2E/DX2 analytically  !
 ! R16   R(15,17)                1.0916         calculate D2E/DX2 analytically  !
 ! R17   R(15,18)                1.0917         calculate D2E/DX2 analytically  !
 ! A1    A(2,1,3)              131.464          calculate D2E/DX2 analytically  !
 ! A2    A(2,1,10)             116.3289         calculate D2E/DX2 analytically  !
 ! A3    A(3,1,10)             112.2037         calculate D2E/DX2 analytically  !
 ! A4    A(1,2,11)             123.5468         calculate D2E/DX2 analytically  !
 ! A5    A(1,2,15)             120.8755         calculate D2E/DX2 analytically  !
 ! A6    A(11,2,15)            115.577          calculate D2E/DX2 analytically  !
 ! A7    A(5,4,6)              109.8995         calculate D2E/DX2 analytically  !
 ! A8    A(5,4,7)              109.9832         calculate D2E/DX2 analytically  !
 ! A9    A(5,4,8)              110.2926         calculate D2E/DX2 analytically  !
 ! A10   A(6,4,7)              110.3645         calculate D2E/DX2 analytically  !
 ! A11   A(6,4,8)              105.7213         calculate D2E/DX2 analytically  !
 ! A12   A(7,4,8)              110.5042         calculate D2E/DX2 analytically  !
 ! A13   A(4,8,9)              108.1075         calculate D2E/DX2 analytically  !
 ! A14   A(8,9,10)             104.0611         calculate D2E/DX2 analytically  !
 ! A15   A(2,11,12)            111.9779         calculate D2E/DX2 analytically  !
 ! A16   A(2,11,13)            109.8788         calculate D2E/DX2 analytically  !
 ! A17   A(2,11,14)            109.6162         calculate D2E/DX2 analytically  !
 ! A18   A(12,11,13)           108.8571         calculate D2E/DX2 analytically  !
 ! A19   A(12,11,14)           109.2969         calculate D2E/DX2 analytically  !
 ! A20   A(13,11,14)           107.0863         calculate D2E/DX2 analytically  !
 ! A21   A(2,15,16)            112.0951         calculate D2E/DX2 analytically  !
 ! A22   A(2,15,17)            109.7547         calculate D2E/DX2 analytically  !
 ! A23   A(2,15,18)            109.7886         calculate D2E/DX2 analytically  !
 ! A24   A(16,15,17)           108.8498         calculate D2E/DX2 analytically  !
 ! A25   A(16,15,18)           108.865          calculate D2E/DX2 analytically  !
 ! A26   A(17,15,18)           107.3644         calculate D2E/DX2 analytically  !
 ! A27   L(1,10,9,5,-1)        176.0932         calculate D2E/DX2 analytically  !
 ! A28   L(1,10,9,5,-2)        176.163          calculate D2E/DX2 analytically  !
 ! D1    D(3,1,2,11)           179.3702         calculate D2E/DX2 analytically  !
 ! D2    D(3,1,2,15)            -0.2924         calculate D2E/DX2 analytically  !
 ! D3    D(10,1,2,11)           -1.3589         calculate D2E/DX2 analytically  !
 ! D4    D(10,1,2,15)          178.9786         calculate D2E/DX2 analytically  !
 ! D5    D(2,1,9,8)            -57.2593         calculate D2E/DX2 analytically  !
 ! D6    D(3,1,9,8)            120.3184         calculate D2E/DX2 analytically  !
 ! D7    D(1,2,11,12)           -0.3804         calculate D2E/DX2 analytically  !
 ! D8    D(1,2,11,13)          120.7204         calculate D2E/DX2 analytically  !
 ! D9    D(1,2,11,14)         -121.8572         calculate D2E/DX2 analytically  !
 ! D10   D(15,2,11,12)         179.2985         calculate D2E/DX2 analytically  !
 ! D11   D(15,2,11,13)         -59.6007         calculate D2E/DX2 analytically  !
 ! D12   D(15,2,11,14)          57.8217         calculate D2E/DX2 analytically  !
 ! D13   D(1,2,15,16)           -0.2747         calculate D2E/DX2 analytically  !
 ! D14   D(1,2,15,17)          120.8092         calculate D2E/DX2 analytically  !
 ! D15   D(1,2,15,18)         -121.4012         calculate D2E/DX2 analytically  !
 ! D16   D(11,2,15,16)        -179.9629         calculate D2E/DX2 analytically  !
 ! D17   D(11,2,15,17)         -58.879          calculate D2E/DX2 analytically  !
 ! D18   D(11,2,15,18)          58.9106         calculate D2E/DX2 analytically  !
 ! D19   D(5,4,8,9)             65.3784         calculate D2E/DX2 analytically  !
 ! D20   D(6,4,8,9)           -175.8655         calculate D2E/DX2 analytically  !
 ! D21   D(7,4,8,9)            -56.4437         calculate D2E/DX2 analytically  !
 ! D22   D(4,8,9,10)           -84.078          calculate D2E/DX2 analytically  !
 --------------------------------------------------------------------------------
 Trust Radius=3.00D-01 FncErr=1.00D-07 GrdErr=1.00D-07 EigMax=2.50D+02 EigMin=1.00D-04
 Number of steps in this run=    108 maximum allowed number of steps=    108.
 Search for a saddle point of order  1.
 GradGradGradGradGradGradGradGradGradGradGradGradGradGradGradGradGradGrad

                          Input orientation:                          
 ---------------------------------------------------------------------
 Center     Atomic      Atomic             Coordinates (Angstroms)
 Number     Number       Type             X           Y           Z
 ---------------------------------------------------------------------
      1          6           0       -0.673497   -0.938823    0.540935
      2          6           0       -1.539049   -0.074077    0.062427
      3          1           0       -0.740669   -2.007337    0.698830
      4          6           0        2.542214   -0.464442   -0.889941
      5          1           0        1.791756   -1.222915   -1.128261
      6          1           0        2.887289    0.015373   -1.804005
      7          1           0        3.379254   -0.921532   -0.362193
      8          8           0        1.968940    0.563663   -0.111288
      9          8           0        1.594800    0.021256    1.112365
     10          1           0        0.596300   -0.418180    0.918048
     11          6           0       -1.258188    1.396572   -0.068135
     12          1           0       -0.263714    1.653353    0.284830
     13          1           0       -1.351536    1.701089   -1.112490
     14          1           0       -1.999716    1.963113    0.498730
     15          6           0       -2.909348   -0.518954   -0.390777
     16          1           0       -3.051897   -1.590341   -0.271164
     17          1           0       -3.675963    0.005096    0.183126
     18          1           0       -3.053809   -0.258723   -1.441119
 ---------------------------------------------------------------------
                    Distance matrix (angstroms):
                    1          2          3          4          5
     1  C    0.000000
     2  C    1.313749   0.000000
     3  H    1.082204   2.186301   0.000000
     4  C    3.551512   4.209049   3.960055   0.000000
     5  H    2.990718   3.719117   3.219745   1.093282   0.000000
     6  H    4.369031   4.804585   4.849497   1.088491   1.786107
     7  H    4.152196   5.008811   4.390730   1.089993   1.788251
     8  O    3.108912   3.569717   3.822082   1.411362   2.063368
     9  O    2.528528   3.306428   3.120996   2.267758   2.570439
    10  H    1.423260   2.325986   2.088292   2.656604   2.502817
    11  C    2.483324   1.502910   3.527415   4.310660   4.157853
    12  H    2.636833   2.158693   3.714772   3.706531   3.807191
    13  H    3.187897   2.137009   4.172105   4.460980   4.293056
    14  H    3.190904   2.133710   4.170097   5.333906   5.212786
    15  C    2.458334   1.510308   2.847050   5.474638   4.810387
    16  H    2.596299   2.167729   2.540974   5.739740   4.932605
    17  H    3.167619   2.141784   3.596080   6.327532   5.755319
    18  H    3.171271   2.142252   3.603838   5.626863   4.950459
                    6          7          8          9         10
     6  H    0.000000
     7  H    1.788475   0.000000
     8  O    2.002318   2.063430   0.000000
     9  O    3.189949   2.499489   1.389789   0.000000
    10  H    3.584156   3.104386   1.976788   1.108091   0.000000
    11  C    4.701695   5.192874   3.333160   3.380032   2.775790
    12  H    4.120076   4.507759   2.515766   2.608185   2.330630
    13  H    4.613835   5.460903   3.649891   4.056195   3.522563
    14  H    5.742743   6.164064   4.252154   4.131332   3.547631
    15  C    5.990302   6.301540   5.004784   4.778976   3.743360
    16  H    6.340493   6.466475   5.465720   5.109128   4.012172
    17  H    6.857483   7.136673   5.680106   5.352073   4.355629
    18  H    5.958478   6.556500   5.260492   5.311142   4.349068
                   11         12         13         14         15
    11  C    0.000000
    12  H    1.086048   0.000000
    13  H    1.091843   1.771479   0.000000
    14  H    1.091865   1.776347   1.756367   0.000000
    15  C    2.549444   3.489232   2.806464   2.789141   0.000000
    16  H    3.490023   4.313310   3.799022   3.785083   1.087427
    17  H    2.800888   3.790849   3.155626   2.596775   1.091646
    18  H    2.801668   3.797310   2.616600   3.132201   1.091699
                   16         17         18
    16  H    0.000000
    17  H    1.772359   0.000000
    18  H    1.772570   1.759218   0.000000
 Stoichiometry    C5H11O2(2)
 Framework group  C1[X(C5H11O2)]
 Deg. of freedom    48
 Full point group                 C1      NOp   1
 Largest Abelian subgroup         C1      NOp   1
 Largest concise Abelian subgroup C1      NOp   1
                         Standard orientation:                         
 ---------------------------------------------------------------------
 Center     Atomic      Atomic             Coordinates (Angstroms)
 Number     Number       Type             X           Y           Z
 ---------------------------------------------------------------------
      1          6           0        0.673497   -0.938823   -0.540935
      2          6           0        1.539049   -0.074077   -0.062427
      3          1           0        0.740669   -2.007337   -0.698830
      4          6           0       -2.542214   -0.464442    0.889941
      5          1           0       -1.791756   -1.222915    1.128261
      6          1           0       -2.887289    0.015373    1.804005
      7          1           0       -3.379254   -0.921532    0.362193
      8          8           0       -1.968940    0.563663    0.111288
      9          8           0       -1.594800    0.021256   -1.112365
     10          1           0       -0.596300   -0.418180   -0.918048
     11          6           0        1.258188    1.396572    0.068135
     12          1           0        0.263714    1.653353   -0.284830
     13          1           0        1.351536    1.701089    1.112490
     14          1           0        1.999716    1.963113   -0.498730
     15          6           0        2.909348   -0.518954    0.390777
     16          1           0        3.051897   -1.590341    0.271164
     17          1           0        3.675963    0.005096   -0.183126
     18          1           0        3.053809   -0.258723    1.441119
 ---------------------------------------------------------------------
 Rotational constants (GHZ):           4.6685042           1.1446821           1.0973393
 Standard basis: CC-pVTZ (5D, 7F)
 There are   410 symmetry adapted cartesian basis functions of A   symmetry.
 There are   364 symmetry adapted basis functions of A   symmetry.
   364 basis functions,   551 primitive gaussians,   410 cartesian basis functions
    29 alpha electrons       28 beta electrons
       nuclear repulsion energy       307.1128703706 Hartrees.
 NAtoms=   18 NActive=   18 NUniq=   18 SFac= 1.00D+00 NAtFMM=   60 NAOKFM=F Big=F
 Integral buffers will be    131072 words long.
 Raffenetti 2 integral format.
 Two-electron integral symmetry is turned on.
 Nuclear repulsion after empirical dispersion term =      307.1031567183 Hartrees.
 One-electron integrals computed using PRISM.
 NBasis=   364 RedAO= T EigKep=  2.87D-04  NBF=   364
 NBsUse=   364 1.00D-06 EigRej= -1.00D+00 NBFU=   364
 ExpMin= 1.03D-01 ExpMax= 1.53D+04 ExpMxC= 5.22D+02 IAcc=3 IRadAn=         5 AccDes= 0.00D+00
 Harris functional with IExCor=  419 and IRadAn=       5 diagonalized for initial guess.
 HarFok:  IExCor=  419 AccDes= 0.00D+00 IRadAn=         5 IDoV= 1 UseB2=F ITyADJ=14
 ICtDFT=  3500011 ScaDFX=  1.000000  1.000000  1.000000  1.000000
 FoFCou: FMM=F IPFlag=           0 FMFlag=      100000 FMFlg1=           0
         NFxFlg=           0 DoJE=T BraDBF=F KetDBF=T FulRan=T
         wScrn=  0.000000 ICntrl=       500 IOpCl=  0 I1Cent=   200000004 NGrid=           0
         NMat0=    1 NMatS0=      1 NMatT0=    0 NMatD0=    1 NMtDS0=    0 NMtDT0=    0
 Petite list used in FoFCou.
 Initial guess <Sx>= 0.0000 <Sy>= 0.0000 <Sz>= 0.5000 <S**2>= 0.7500 S= 0.5000
 Requested convergence on RMS density matrix=1.00D-08 within 128 cycles.
 Requested convergence on MAX density matrix=1.00D-06.
 Requested convergence on             energy=1.00D-06.
 No special actions if energy rises.
 Integral accuracy reduced to 1.0D-05 until final iterations.
 Initial convergence to 1.0D-05 achieved.  Increase integral accuracy.
 SCF Done:  E(UB2PLYPD3) =  -346.802938316     A.U. after   21 cycles
            NFock= 21  Conv=0.46D-08     -V/T= 2.0042
 <Sx>= 0.0000 <Sy>= 0.0000 <Sz>= 0.5000 <S**2>= 0.7780 S= 0.5139
 <L.S>=  0.00000000000    
 Annihilation of the first spin contaminant:
 S**2 before annihilation     0.7780,   after     0.7505
 DoSCS=T DFT=T ScalE2(SS,OS)=  0.270000  0.270000
 ExpMin= 1.03D-01 ExpMax= 1.53D+04 ExpMxC= 5.22D+02 IAcc=3 IRadAn=         5 AccDes= 0.00D+00
 HarFok:  IExCor=  205 AccDes= 0.00D+00 IRadAn=         5 IDoV=-2 UseB2=F ITyADJ=14
 ICtDFT= 12500011 ScaDFX=  1.000000  1.000000  1.000000  1.000000
 Range of M.O.s used for correlation:     8   364
 NBasis=   364 NAE=    29 NBE=    28 NFC=     7 NFV=     0
 NROrb=    357 NOA=    22 NOB=    21 NVA=   335 NVB=   336

 **** Warning!!: The largest alpha MO coefficient is  0.11992704D+02


 **** Warning!!: The largest beta MO coefficient is  0.11992809D+02

 DoSCS=T DFT=T ScalE2(SS,OS)=  0.270000  0.270000
 Disk-based method using ON**2 memory for 22 occupieds at a time.
 Permanent disk used for amplitudes=   135386230 words.
 Estimated scratch disk usage=  2546963512 words.
 Actual    scratch disk usage=  2463526968 words.
 JobTyp=2 Pass  1:  I=   8 to  29 NPSUse= 40 ParTrn=T ParDer=T DoDerP=T.
 (rs|ai) integrals will be sorted in core.
 Actual    scratch disk usage=  2463526968 words.
 JobTyp=3 Pass  1:  I=   8 to  28 NPSUse= 40 ParTrn=T ParDer=T DoDerP=T.
 (rs|ai) integrals will be sorted in core.
 Spin components of T(2) and E(2):
     alpha-alpha T2 =       0.7524765208D-01 E2=     -0.5352494288D-01
     alpha-beta  T2 =       0.4580989298D+00 E2=     -0.3332873622D+00
     beta-beta   T2 =       0.7986253341D-01 E2=     -0.5209448080D-01
 (S**2,0)=  0.77798D+00           (S**2,1)=  0.74959D+00
 Scaling Projection term by:   0.270000
 E(PUHF)=      -0.34680920565D+03        E(PMP2)=      -0.34724268842D+03
 E2(B2PLYPD3) =    -0.4389067859D+00 E(B2PLYPD3) =    -0.34724184510228D+03
 G2DrvN: will do    19 centers at a time, making    1 passes.
 Calling FoFCou, ICntrl=  3107 FMM=F I1Cent=   0 AccDes= 0.00D+00.
 End of G2Drv F.D. properties file   721 does not exist.
 End of G2Drv F.D. properties file   722 does not exist.
 End of G2Drv F.D. properties file   788 does not exist.
          IDoAtm=111111111111111111
          Differentiating once with respect to electric field.
                with respect to dipole field.
          Differentiating once with respect to nuclear coordinates.
 Keep R1 and R2 ints in memory in canonical form, NReq=4459304652.
          There are    57 degrees of freedom in the 1st order CPHF.  IDoFFX=6 NUNeed=    57.
     54 vectors produced by pass  0 Test12= 3.35D-14 1.75D-09 XBig12= 9.00D+01 4.55D+00.
 AX will form    54 AO Fock derivatives at one time.
     54 vectors produced by pass  1 Test12= 3.35D-14 1.75D-09 XBig12= 6.06D+00 4.59D-01.
     54 vectors produced by pass  2 Test12= 3.35D-14 1.75D-09 XBig12= 3.83D-01 1.35D-01.
     54 vectors produced by pass  3 Test12= 3.35D-14 1.75D-09 XBig12= 6.22D-03 7.33D-03.
     54 vectors produced by pass  4 Test12= 3.35D-14 1.75D-09 XBig12= 6.18D-05 7.46D-04.
     54 vectors produced by pass  5 Test12= 3.35D-14 1.75D-09 XBig12= 5.87D-07 7.69D-05.
     54 vectors produced by pass  6 Test12= 3.35D-14 1.75D-09 XBig12= 5.56D-09 8.98D-06.
     28 vectors produced by pass  7 Test12= 3.35D-14 1.75D-09 XBig12= 3.31D-11 7.35D-07.
      4 vectors produced by pass  8 Test12= 3.35D-14 1.75D-09 XBig12= 1.80D-13 3.91D-08.
      3 vectors produced by pass  9 Test12= 3.35D-14 1.75D-09 XBig12= 1.57D-15 3.89D-09.
 InvSVY:  IOpt=1 It=  1 EMax= 8.88D-15
 Solved reduced A of dimension   413 with    57 vectors.
 End of Minotr F.D. properties file   721 does not exist.
 End of Minotr F.D. properties file   722 does not exist.
 End of Minotr F.D. properties file   788 does not exist.
 MDV= 10737418240.
 DoSCS=T DFT=T ScalE2(SS,OS)=  0.270000  0.270000
 Form MO integral derivatives with frozen-active canonical formalism.
 Discarding MO integrals.
 Reordered first order wavefunction length =    545006183
 In DefCFB: NBatch=  1 ICI= 29 ICA=336 LFMax= 68
            Large arrays: LIAPS= 11415666080 LIARS=  1957569600 words.
 In DefCFB: NBatch=  1 ICI= 29 ICA=336 LFMax= 68
            Large arrays: LIAPS= 11415666080 LIARS=  1957569600 words.
 Semi-Direct transformation.
 ModeAB=           4 MOrb=            29 LenV=   10733557455
 LASXX=    664627481 LTotXX=   664627481 LenRXX=  1338891981
 LTotAB=   674264500 MaxLAS=   784648592 LenRXY=           0
 NonZer=  2003519462 LenScr=  3017065472 LnRSAI=   784648592
 LnScr1=  1181588480 LExtra=           0 Total=   6322194525
 MaxDsk=          -1 SrtSym=           T ITran=            4
 JobTyp=1 Pass  1:  I=   1 to  29.
 (rs|ai) integrals will be sorted in core.
 ModeAB=           4 MOrb=            28 LenV=   10733557455
 LASXX=    642894399 LTotXX=   642894399 LenRXX=  1195226319
 LTotAB=   552331920 MaxLAS=   757591744 LenRXY=           0
 NonZer=  1838120718 LenScr=  2767993856 LnRSAI=   757591744
 LnScr1=  1140844544 LExtra=           0 Total=   5861656463
 MaxDsk=          -1 SrtSym=           T ITran=            4
 JobTyp=2 Pass  1:  I=   1 to  28.
 (rs|ai) integrals will be sorted in core.
 SymMOI:  orbitals are not symmetric.
 DoSCS=T DFT=T ScalE2(SS,OS)=  0.270000  0.270000
 Spin components of T(2) and E(2):
     alpha-alpha T2 =       0.7524765208D-01 E2=     -0.5352494288D-01
     alpha-beta  T2 =       0.4580989298D+00 E2=     -0.3332873622D+00
     beta-beta   T2 =       0.7986253341D-01 E2=     -0.5209448080D-01
 E2(B2PLYPD3) =    -0.4389067859D+00 E(B2PLYPD3) =    -0.34724184510228D+03
 (S**2,0)=  0.77798D+00           (S**2,1)=  0.74959D+00
 Scaling Projection term by:   0.270000
 E(PUHF)=      -0.34680920565D+03        E(PMP2)=      -0.34724268842D+03
          IDoAtm=111111111111111111
          Differentiating once with respect to electric field.
                with respect to dipole field.
          Differentiating once with respect to nuclear coordinates.
 Keep R1 and R2 ints in memory in canonical form, NReq=4459439664.
          There are     1 degrees of freedom in the 1st order CPHF.  IDoFFX=0 NUNeed=     1.
 LinEq1:  Iter=  0 NonCon=     1 RMS=8.54D-04 Max=6.54D-02 NDo=     1
 AX will form     1 AO Fock derivatives at one time.
 LinEq1:  Iter=  1 NonCon=     1 RMS=2.92D-04 Max=1.13D-02 NDo=     1
 LinEq1:  Iter=  2 NonCon=     1 RMS=1.80D-04 Max=8.57D-03 NDo=     1
 LinEq1:  Iter=  3 NonCon=     1 RMS=8.00D-05 Max=3.57D-03 NDo=     1
 LinEq1:  Iter=  4 NonCon=     1 RMS=5.87D-05 Max=2.98D-03 NDo=     1
 LinEq1:  Iter=  5 NonCon=     1 RMS=2.28D-05 Max=1.27D-03 NDo=     1
 LinEq1:  Iter=  6 NonCon=     1 RMS=1.58D-05 Max=6.98D-04 NDo=     1
 LinEq1:  Iter=  7 NonCon=     1 RMS=5.15D-06 Max=1.31D-04 NDo=     1
 LinEq1:  Iter=  8 NonCon=     1 RMS=3.52D-06 Max=1.20D-04 NDo=     1
 LinEq1:  Iter=  9 NonCon=     1 RMS=2.09D-06 Max=4.37D-05 NDo=     1
 LinEq1:  Iter= 10 NonCon=     1 RMS=8.95D-07 Max=2.05D-05 NDo=     1
 LinEq1:  Iter= 11 NonCon=     1 RMS=4.27D-07 Max=9.00D-06 NDo=     1
 LinEq1:  Iter= 12 NonCon=     1 RMS=1.63D-07 Max=3.99D-06 NDo=     1
 LinEq1:  Iter= 13 NonCon=     1 RMS=6.08D-08 Max=1.55D-06 NDo=     1
 LinEq1:  Iter= 14 NonCon=     1 RMS=1.86D-08 Max=4.38D-07 NDo=     1
 LinEq1:  Iter= 15 NonCon=     1 RMS=6.37D-09 Max=1.50D-07 NDo=     1
 LinEq1:  Iter= 16 NonCon=     1 RMS=2.50D-09 Max=5.14D-08 NDo=     1
 LinEq1:  Iter= 17 NonCon=     1 RMS=1.06D-09 Max=3.82D-08 NDo=     1
 LinEq1:  Iter= 18 NonCon=     1 RMS=4.10D-10 Max=2.33D-08 NDo=     1
 LinEq1:  Iter= 19 NonCon=     1 RMS=1.54D-10 Max=9.28D-09 NDo=     1
 LinEq1:  Iter= 20 NonCon=     1 RMS=5.65D-11 Max=2.69D-09 NDo=     1
 LinEq1:  Iter= 21 NonCon=     1 RMS=2.65D-11 Max=1.03D-09 NDo=     1
 LinEq1:  Iter= 22 NonCon=     0 RMS=9.70D-12 Max=2.45D-10 NDo=     1
 Linear equations converged to 1.000D-10 1.000D-09 after    22 iterations.
 End of Minotr F.D. properties file   721 does not exist.
 End of Minotr F.D. properties file   722 does not exist.
 End of Minotr F.D. properties file   788 does not exist.
 Symmetrizing basis deriv contribution to polar:
 IMax=3 JMax=2 DiffMx= 0.00D+00
 G2DrvN: will do    19 centers at a time, making    1 passes.
 Calling FoFCou, ICntrl=  3107 FMM=F I1Cent=   0 AccDes= 0.00D+00.
 End of G2Drv F.D. properties file   721 does not exist.
 End of G2Drv F.D. properties file   722 does not exist.
 End of G2Drv F.D. properties file   788 does not exist.
 DoSCS=T DFT=T ScalE2(SS,OS)=  0.270000  0.270000
 R2 and R3 integrals will be kept in memory, NReq=  7133702340.
 DD1Dir will call FoFMem   1 times, MxPair=      2408
 NAB=   812 NAA=   406 NBB=   378.
 Discarding MO integrals.

 **********************************************************************

            Population analysis using the SCF Density.

 **********************************************************************

 Orbital symmetries:
 Alpha Orbitals:
       Occupied  (A) (A) (A) (A) (A) (A) (A) (A) (A) (A) (A) (A)
                 (A) (A) (A) (A) (A) (A) (A) (A) (A) (A) (A) (A)
                 (A) (A) (A) (A) (A)
       Virtual   (A) (A) (A) (A) (A) (A) (A) (A) (A) (A) (A) (A)
                 (A) (A) (A) (A) (A) (A) (A) (A) (A) (A) (A) (A)
                 (A) (A) (A) (A) (A) (A) (A) (A) (A) (A) (A) (A)
                 (A) (A) (A) (A) (A) (A) (A) (A) (A) (A) (A) (A)
                 (A) (A) (A) (A) (A) (A) (A) (A) (A) (A) (A) (A)
                 (A) (A) (A) (A) (A) (A) (A) (A) (A) (A) (A) (A)
                 (A) (A) (A) (A) (A) (A) (A) (A) (A) (A) (A) (A)
                 (A) (A) (A) (A) (A) (A) (A) (A) (A) (A) (A) (A)
                 (A) (A) (A) (A) (A) (A) (A) (A) (A) (A) (A) (A)
                 (A) (A) (A) (A) (A) (A) (A) (A) (A) (A) (A) (A)
                 (A) (A) (A) (A) (A) (A) (A) (A) (A) (A) (A) (A)
                 (A) (A) (A) (A) (A) (A) (A) (A) (A) (A) (A) (A)
                 (A) (A) (A) (A) (A) (A) (A) (A) (A) (A) (A) (A)
                 (A) (A) (A) (A) (A) (A) (A) (A) (A) (A) (A) (A)
                 (A) (A) (A) (A) (A) (A) (A) (A) (A) (A) (A) (A)
                 (A) (A) (A) (A) (A) (A) (A) (A) (A) (A) (A) (A)
                 (A) (A) (A) (A) (A) (A) (A) (A) (A) (A) (A) (A)
                 (A) (A) (A) (A) (A) (A) (A) (A) (A) (A) (A) (A)
                 (A) (A) (A) (A) (A) (A) (A) (A) (A) (A) (A) (A)
                 (A) (A) (A) (A) (A) (A) (A) (A) (A) (A) (A) (A)
                 (A) (A) (A) (A) (A) (A) (A) (A) (A) (A) (A) (A)
                 (A) (A) (A) (A) (A) (A) (A) (A) (A) (A) (A) (A)
                 (A) (A) (A) (A) (A) (A) (A) (A) (A) (A) (A) (A)
                 (A) (A) (A) (A) (A) (A) (A) (A) (A) (A) (A) (A)
                 (A) (A) (A) (A) (A) (A) (A) (A) (A) (A) (A) (A)
                 (A) (A) (A) (A) (A) (A) (A) (A) (A) (A) (A) (A)
                 (A) (A) (A) (A) (A) (A) (A) (A) (A) (A) (A) (A)
                 (A) (A) (A) (A) (A) (A) (A) (A) (A) (A) (A)
 Beta  Orbitals:
       Occupied  (A) (A) (A) (A) (A) (A) (A) (A) (A) (A) (A) (A)
                 (A) (A) (A) (A) (A) (A) (A) (A) (A) (A) (A) (A)
                 (A) (A) (A) (A)
       Virtual   (A) (A) (A) (A) (A) (A) (A) (A) (A) (A) (A) (A)
                 (A) (A) (A) (A) (A) (A) (A) (A) (A) (A) (A) (A)
                 (A) (A) (A) (A) (A) (A) (A) (A) (A) (A) (A) (A)
                 (A) (A) (A) (A) (A) (A) (A) (A) (A) (A) (A) (A)
                 (A) (A) (A) (A) (A) (A) (A) (A) (A) (A) (A) (A)
                 (A) (A) (A) (A) (A) (A) (A) (A) (A) (A) (A) (A)
                 (A) (A) (A) (A) (A) (A) (A) (A) (A) (A) (A) (A)
                 (A) (A) (A) (A) (A) (A) (A) (A) (A) (A) (A) (A)
                 (A) (A) (A) (A) (A) (A) (A) (A) (A) (A) (A) (A)
                 (A) (A) (A) (A) (A) (A) (A) (A) (A) (A) (A) (A)
                 (A) (A) (A) (A) (A) (A) (A) (A) (A) (A) (A) (A)
                 (A) (A) (A) (A) (A) (A) (A) (A) (A) (A) (A) (A)
                 (A) (A) (A) (A) (A) (A) (A) (A) (A) (A) (A) (A)
                 (A) (A) (A) (A) (A) (A) (A) (A) (A) (A) (A) (A)
                 (A) (A) (A) (A) (A) (A) (A) (A) (A) (A) (A) (A)
                 (A) (A) (A) (A) (A) (A) (A) (A) (A) (A) (A) (A)
                 (A) (A) (A) (A) (A) (A) (A) (A) (A) (A) (A) (A)
                 (A) (A) (A) (A) (A) (A) (A) (A) (A) (A) (A) (A)
                 (A) (A) (A) (A) (A) (A) (A) (A) (A) (A) (A) (A)
                 (A) (A) (A) (A) (A) (A) (A) (A) (A) (A) (A) (A)
                 (A) (A) (A) (A) (A) (A) (A) (A) (A) (A) (A) (A)
                 (A) (A) (A) (A) (A) (A) (A) (A) (A) (A) (A) (A)
                 (A) (A) (A) (A) (A) (A) (A) (A) (A) (A) (A) (A)
                 (A) (A) (A) (A) (A) (A) (A) (A) (A) (A) (A) (A)
                 (A) (A) (A) (A) (A) (A) (A) (A) (A) (A) (A) (A)
                 (A) (A) (A) (A) (A) (A) (A) (A) (A) (A) (A) (A)
                 (A) (A) (A) (A) (A) (A) (A) (A) (A) (A) (A) (A)
                 (A) (A) (A) (A) (A) (A) (A) (A) (A) (A) (A) (A)
 The electronic state is 2-A.
 Alpha  occ. eigenvalues --  -19.78241 -19.78084 -10.65694 -10.64070 -10.63369
 Alpha  occ. eigenvalues --  -10.62173 -10.60968  -1.28434  -1.02151  -0.94366
 Alpha  occ. eigenvalues --   -0.80885  -0.80469  -0.77338  -0.63795  -0.59954
 Alpha  occ. eigenvalues --   -0.55890  -0.55135  -0.53264  -0.51430  -0.51002
 Alpha  occ. eigenvalues --   -0.48105  -0.45904  -0.44697  -0.43845  -0.43198
 Alpha  occ. eigenvalues --   -0.37177  -0.35883  -0.31737  -0.30378
 Alpha virt. eigenvalues --    0.06062   0.07331   0.10154   0.11225   0.12882
 Alpha virt. eigenvalues --    0.14066   0.14553   0.14964   0.16393   0.17858
 Alpha virt. eigenvalues --    0.18452   0.18787   0.20258   0.21708   0.25575
 Alpha virt. eigenvalues --    0.26842   0.27810   0.29149   0.31028   0.33731
 Alpha virt. eigenvalues --    0.34943   0.36093   0.37527   0.40064   0.41939
 Alpha virt. eigenvalues --    0.42838   0.45147   0.46666   0.47123   0.48985
 Alpha virt. eigenvalues --    0.49989   0.50883   0.51802   0.52023   0.52355
 Alpha virt. eigenvalues --    0.52998   0.53495   0.53939   0.54612   0.55871
 Alpha virt. eigenvalues --    0.57373   0.58536   0.60538   0.61273   0.62339
 Alpha virt. eigenvalues --    0.63666   0.66082   0.69525   0.71155   0.71573
 Alpha virt. eigenvalues --    0.72889   0.76604   0.77630   0.78394   0.81575
 Alpha virt. eigenvalues --    0.84733   0.87472   0.87835   0.89055   0.92054
 Alpha virt. eigenvalues --    0.92722   0.93979   0.95128   0.96750   0.99624
 Alpha virt. eigenvalues --    0.99862   1.03215   1.03893   1.04670   1.05978
 Alpha virt. eigenvalues --    1.06413   1.08065   1.09617   1.10117   1.11404
 Alpha virt. eigenvalues --    1.12889   1.14170   1.16535   1.17248   1.18452
 Alpha virt. eigenvalues --    1.20357   1.23322   1.24721   1.25998   1.27189
 Alpha virt. eigenvalues --    1.27389   1.29099   1.31790   1.34488   1.35579
 Alpha virt. eigenvalues --    1.37105   1.38653   1.38832   1.40083   1.40659
 Alpha virt. eigenvalues --    1.40977   1.42557   1.44361   1.46950   1.49793
 Alpha virt. eigenvalues --    1.50277   1.51487   1.54442   1.57227   1.58334
 Alpha virt. eigenvalues --    1.60226   1.61463   1.62496   1.63701   1.66980
 Alpha virt. eigenvalues --    1.73137   1.76855   1.80814   1.82566   1.88063
 Alpha virt. eigenvalues --    1.97651   1.99518   2.02203   2.07235   2.14770
 Alpha virt. eigenvalues --    2.18005   2.18474   2.24742   2.27653   2.29359
 Alpha virt. eigenvalues --    2.32705   2.34720   2.38649   2.40250   2.42996
 Alpha virt. eigenvalues --    2.45481   2.45835   2.46171   2.49785   2.50802
 Alpha virt. eigenvalues --    2.54610   2.56349   2.63353   2.67909   2.68758
 Alpha virt. eigenvalues --    2.70427   2.71087   2.72792   2.75637   2.77597
 Alpha virt. eigenvalues --    2.79326   2.83713   2.86284   2.88503   2.89803
 Alpha virt. eigenvalues --    2.91677   2.92354   2.92671   2.93783   2.94812
 Alpha virt. eigenvalues --    2.95918   2.97853   2.98777   3.00232   3.02810
 Alpha virt. eigenvalues --    3.04345   3.04851   3.06245   3.07854   3.10793
 Alpha virt. eigenvalues --    3.11975   3.13033   3.13671   3.14301   3.15401
 Alpha virt. eigenvalues --    3.15771   3.17868   3.18607   3.20456   3.22255
 Alpha virt. eigenvalues --    3.22470   3.23282   3.24718   3.25705   3.27182
 Alpha virt. eigenvalues --    3.30112   3.34443   3.38098   3.39625   3.41760
 Alpha virt. eigenvalues --    3.42496   3.44176   3.44590   3.45455   3.47450
 Alpha virt. eigenvalues --    3.48505   3.49874   3.50359   3.52694   3.53199
 Alpha virt. eigenvalues --    3.53646   3.54303   3.57320   3.59686   3.60465
 Alpha virt. eigenvalues --    3.61324   3.62235   3.65134   3.66273   3.66581
 Alpha virt. eigenvalues --    3.68633   3.69388   3.72020   3.76468   3.79625
 Alpha virt. eigenvalues --    3.79847   3.80470   3.83859   3.87956   3.89062
 Alpha virt. eigenvalues --    3.89831   3.91512   3.93988   3.95182   3.95790
 Alpha virt. eigenvalues --    3.96931   3.98820   3.99435   4.01015   4.03394
 Alpha virt. eigenvalues --    4.04525   4.05733   4.07004   4.08395   4.10496
 Alpha virt. eigenvalues --    4.10860   4.13939   4.14477   4.18075   4.18652
 Alpha virt. eigenvalues --    4.19433   4.20415   4.20852   4.23875   4.26178
 Alpha virt. eigenvalues --    4.26696   4.27887   4.30168   4.33780   4.34584
 Alpha virt. eigenvalues --    4.37039   4.37665   4.38187   4.41696   4.42895
 Alpha virt. eigenvalues --    4.47234   4.49147   4.50465   4.53149   4.58546
 Alpha virt. eigenvalues --    4.63477   4.66639   4.68021   4.68677   4.69979
 Alpha virt. eigenvalues --    4.75290   4.78022   4.81534   4.84388   4.90474
 Alpha virt. eigenvalues --    4.92470   4.94816   4.96318   4.97175   4.98251
 Alpha virt. eigenvalues --    5.00992   5.02444   5.04137   5.07287   5.09166
 Alpha virt. eigenvalues --    5.17084   5.22714   5.23670   5.25378   5.26306
 Alpha virt. eigenvalues --    5.28464   5.28941   5.30529   5.31743   5.33989
 Alpha virt. eigenvalues --    5.35277   5.36908   5.37772   5.40291   5.41487
 Alpha virt. eigenvalues --    5.41830   5.42963   5.45380   5.46652   5.47086
 Alpha virt. eigenvalues --    5.49244   5.51171   5.58384   5.70143   5.71298
 Alpha virt. eigenvalues --    5.74515   5.83165   5.85573   5.93620   5.97211
 Alpha virt. eigenvalues --    5.99223   6.01994   6.03928   6.05896   6.07297
 Alpha virt. eigenvalues --    6.10984   6.13184   6.30585   6.40175   6.44431
 Alpha virt. eigenvalues --    6.55803   6.69251   6.77306   6.82236   6.90196
 Alpha virt. eigenvalues --    6.98477   7.07925   7.10186   7.22085   7.41962
 Alpha virt. eigenvalues --    7.46995   7.64337   7.80153   9.27694  10.06594
 Alpha virt. eigenvalues --   10.95672  13.45192  13.93704  14.15869  14.19722
  Beta  occ. eigenvalues --  -19.78114 -19.76717 -10.65700 -10.64282 -10.62007
  Beta  occ. eigenvalues --  -10.61813 -10.60892  -1.26799  -0.99724  -0.93538
  Beta  occ. eigenvalues --   -0.80472  -0.78278  -0.76640  -0.61204  -0.57837
  Beta  occ. eigenvalues --   -0.54972  -0.54679  -0.52771  -0.51218  -0.49578
  Beta  occ. eigenvalues --   -0.45940  -0.45643  -0.44079  -0.43335  -0.42395
  Beta  occ. eigenvalues --   -0.35561  -0.33271  -0.30535
  Beta virt. eigenvalues --   -0.04901   0.06520   0.07472   0.10336   0.11564
  Beta virt. eigenvalues --    0.13108   0.14386   0.14613   0.15190   0.16550
  Beta virt. eigenvalues --    0.18042   0.18743   0.18851   0.20597   0.22045
  Beta virt. eigenvalues --    0.25865   0.26963   0.27955   0.29509   0.31154
  Beta virt. eigenvalues --    0.33999   0.35546   0.36594   0.38373   0.40530
  Beta virt. eigenvalues --    0.42010   0.43228   0.45857   0.46763   0.47893
  Beta virt. eigenvalues --    0.49218   0.50212   0.51386   0.51895   0.52084
  Beta virt. eigenvalues --    0.52660   0.53286   0.53762   0.54539   0.55170
  Beta virt. eigenvalues --    0.56240   0.57867   0.59387   0.61250   0.62252
  Beta virt. eigenvalues --    0.62654   0.64041   0.66568   0.70074   0.71415
  Beta virt. eigenvalues --    0.72234   0.73782   0.76825   0.78255   0.78713
  Beta virt. eigenvalues --    0.81782   0.85429   0.87777   0.88129   0.89453
  Beta virt. eigenvalues --    0.92247   0.92851   0.94212   0.95159   0.97144
  Beta virt. eigenvalues --    0.99739   1.00090   1.03581   1.04002   1.04926
  Beta virt. eigenvalues --    1.05999   1.06634   1.08268   1.09984   1.10257
  Beta virt. eigenvalues --    1.11575   1.13283   1.14503   1.16674   1.17438
  Beta virt. eigenvalues --    1.18614   1.20501   1.23570   1.25077   1.26185
  Beta virt. eigenvalues --    1.27395   1.28219   1.29420   1.32147   1.34571
  Beta virt. eigenvalues --    1.35711   1.37469   1.38745   1.39010   1.40334
  Beta virt. eigenvalues --    1.40783   1.41006   1.42732   1.44829   1.46966
  Beta virt. eigenvalues --    1.50251   1.50741   1.51678   1.54762   1.57412
  Beta virt. eigenvalues --    1.58546   1.60331   1.61529   1.62967   1.64155
  Beta virt. eigenvalues --    1.67408   1.73844   1.77468   1.81050   1.83030
  Beta virt. eigenvalues --    1.90427   1.98548   1.99950   2.02618   2.08320
  Beta virt. eigenvalues --    2.15302   2.18675   2.20324   2.24919   2.27757
  Beta virt. eigenvalues --    2.29839   2.32972   2.35634   2.39003   2.41286
  Beta virt. eigenvalues --    2.43330   2.45586   2.46087   2.46589   2.50110
  Beta virt. eigenvalues --    2.50994   2.54887   2.56838   2.63918   2.68284
  Beta virt. eigenvalues --    2.69157   2.71034   2.71732   2.72921   2.75771
  Beta virt. eigenvalues --    2.77976   2.79552   2.84001   2.86589   2.89148
  Beta virt. eigenvalues --    2.90173   2.91785   2.92409   2.92716   2.94752
  Beta virt. eigenvalues --    2.95252   2.96388   2.98388   2.99555   3.00319
  Beta virt. eigenvalues --    3.03075   3.04732   3.04994   3.06895   3.08897
  Beta virt. eigenvalues --    3.11242   3.12227   3.13580   3.13930   3.14605
  Beta virt. eigenvalues --    3.15651   3.16174   3.18108   3.19215   3.20730
  Beta virt. eigenvalues --    3.22593   3.22810   3.23894   3.25237   3.26749
  Beta virt. eigenvalues --    3.28572   3.30724   3.34387   3.38659   3.40248
  Beta virt. eigenvalues --    3.42220   3.42769   3.44439   3.44636   3.45731
  Beta virt. eigenvalues --    3.47962   3.48744   3.50011   3.50435   3.52853
  Beta virt. eigenvalues --    3.53390   3.53732   3.54376   3.57471   3.59918
  Beta virt. eigenvalues --    3.60669   3.61436   3.62336   3.65619   3.66443
  Beta virt. eigenvalues --    3.66715   3.69178   3.69631   3.72341   3.76881
  Beta virt. eigenvalues --    3.79974   3.80273   3.81115   3.83935   3.88066
  Beta virt. eigenvalues --    3.89017   3.89985   3.91610   3.93965   3.95269
  Beta virt. eigenvalues --    3.95914   3.97144   3.98747   3.99582   4.01098
  Beta virt. eigenvalues --    4.03275   4.04470   4.05885   4.07391   4.08624
  Beta virt. eigenvalues --    4.10572   4.11124   4.14019   4.14475   4.18214
  Beta virt. eigenvalues --    4.18771   4.19422   4.20681   4.21002   4.24338
  Beta virt. eigenvalues --    4.26351   4.26892   4.28231   4.30326   4.33967
  Beta virt. eigenvalues --    4.34813   4.37609   4.37938   4.38822   4.41873
  Beta virt. eigenvalues --    4.43060   4.47353   4.49287   4.50718   4.53495
  Beta virt. eigenvalues --    4.58833   4.63610   4.67764   4.68478   4.69118
  Beta virt. eigenvalues --    4.70322   4.75840   4.78635   4.81693   4.84557
  Beta virt. eigenvalues --    4.90945   4.92460   4.94907   4.96627   4.97201
  Beta virt. eigenvalues --    4.98439   5.01249   5.02644   5.04344   5.07456
  Beta virt. eigenvalues --    5.09745   5.17983   5.23259   5.24311   5.25687
  Beta virt. eigenvalues --    5.26407   5.28596   5.28990   5.30909   5.31951
  Beta virt. eigenvalues --    5.34181   5.35582   5.37180   5.37935   5.40415
  Beta virt. eigenvalues --    5.41999   5.42038   5.43189   5.45444   5.46802
  Beta virt. eigenvalues --    5.47109   5.49433   5.51404   5.58540   5.70851
  Beta virt. eigenvalues --    5.71777   5.75659   5.84021   5.86523   5.93666
  Beta virt. eigenvalues --    5.97401   5.99324   6.02440   6.04008   6.06520
  Beta virt. eigenvalues --    6.07647   6.11458   6.14175   6.30814   6.40769
  Beta virt. eigenvalues --    6.45925   6.57754   6.70070   6.78586   6.84038
  Beta virt. eigenvalues --    6.91561   6.99990   7.09344   7.10685   7.23837
  Beta virt. eigenvalues --    7.43145   7.47900   7.65734   7.80977   9.28261
  Beta virt. eigenvalues --   10.07142  10.96641  13.45193  13.93824  14.15943
  Beta virt. eigenvalues --   14.20466
          Condensed to atoms (all electrons):
               1          2          3          4          5          6
     1  C    5.399141   0.556568   0.399209  -0.006478   0.004570   0.000028
     2  C    0.556568   4.942055  -0.056829  -0.000589  -0.000144   0.000257
     3  H    0.399209  -0.056829   0.513115   0.000256  -0.000320  -0.000047
     4  C   -0.006478  -0.000589   0.000256   4.585603   0.395758   0.398726
     5  H    0.004570  -0.000144  -0.000320   0.395758   0.683851  -0.035583
     6  H    0.000028   0.000257  -0.000047   0.398726  -0.035583   0.594570
     7  H   -0.000337   0.000270  -0.000004   0.405231  -0.062227  -0.028906
     8  O    0.000993   0.001973   0.000240   0.312700  -0.050307  -0.027609
     9  O   -0.071781  -0.003312   0.000437  -0.045979  -0.006021   0.006954
    10  H    0.177737   0.001205  -0.008644   0.004392   0.005164  -0.000656
    11  C   -0.049453   0.340004   0.005766  -0.000786  -0.000730   0.000213
    12  H   -0.003550  -0.031618   0.000169   0.000027   0.000381  -0.000377
    13  H    0.002020  -0.042124  -0.000271   0.000063  -0.000084  -0.000008
    14  H   -0.000920  -0.039013  -0.000327  -0.000004  -0.000018   0.000000
    15  C   -0.060079   0.351106  -0.006720  -0.000055   0.000016   0.000003
    16  H   -0.004899  -0.038083   0.002467  -0.000004  -0.000006   0.000001
    17  H    0.001015  -0.040453   0.000166  -0.000001   0.000008  -0.000000
    18  H   -0.000129  -0.041287   0.000127   0.000012  -0.000050   0.000001
               7          8          9         10         11         12
     1  C   -0.000337   0.000993  -0.071781   0.177737  -0.049453  -0.003550
     2  C    0.000270   0.001973  -0.003312   0.001205   0.340004  -0.031618
     3  H   -0.000004   0.000240   0.000437  -0.008644   0.005766   0.000169
     4  C    0.405231   0.312700  -0.045979   0.004392  -0.000786   0.000027
     5  H   -0.062227  -0.050307  -0.006021   0.005164  -0.000730   0.000381
     6  H   -0.028906  -0.027609   0.006954  -0.000656   0.000213  -0.000377
     7  H    0.636435  -0.041695   0.006472  -0.000040   0.000051   0.000110
     8  O   -0.041695   7.958653   0.059302  -0.034680   0.001367   0.002658
     9  O    0.006472   0.059302   8.027419   0.245218  -0.001166   0.004494
    10  H   -0.000040  -0.034680   0.245218   0.391138  -0.005952   0.002803
    11  C    0.000051   0.001367  -0.001166  -0.005952   4.828363   0.409669
    12  H    0.000110   0.002658   0.004494   0.002803   0.409669   0.526011
    13  H   -0.000015  -0.000585   0.000263   0.000464   0.402595  -0.021802
    14  H    0.000009   0.000612  -0.000402  -0.000083   0.404286  -0.025141
    15  C   -0.000001  -0.000043  -0.000074   0.001517  -0.059284   0.004863
    16  H    0.000000   0.000000   0.000013  -0.000086   0.005718  -0.000312
    17  H    0.000000  -0.000002   0.000007  -0.000127  -0.001829  -0.000097
    18  H   -0.000000   0.000008   0.000007   0.000011  -0.002016  -0.000109
              13         14         15         16         17         18
     1  C    0.002020  -0.000920  -0.060079  -0.004899   0.001015  -0.000129
     2  C   -0.042124  -0.039013   0.351106  -0.038083  -0.040453  -0.041287
     3  H   -0.000271  -0.000327  -0.006720   0.002467   0.000166   0.000127
     4  C    0.000063  -0.000004  -0.000055  -0.000004  -0.000001   0.000012
     5  H   -0.000084  -0.000018   0.000016  -0.000006   0.000008  -0.000050
     6  H   -0.000008   0.000000   0.000003   0.000001  -0.000000   0.000001
     7  H   -0.000015   0.000009  -0.000001   0.000000   0.000000  -0.000000
     8  O   -0.000585   0.000612  -0.000043   0.000000  -0.000002   0.000008
     9  O    0.000263  -0.000402  -0.000074   0.000013   0.000007   0.000007
    10  H    0.000464  -0.000083   0.001517  -0.000086  -0.000127   0.000011
    11  C    0.402595   0.404286  -0.059284   0.005718  -0.001829  -0.002016
    12  H   -0.021802  -0.025141   0.004863  -0.000312  -0.000097  -0.000109
    13  H    0.605230  -0.040245  -0.002617  -0.000150  -0.001209   0.003375
    14  H   -0.040245   0.604833  -0.003791  -0.000017   0.003354  -0.001117
    15  C   -0.002617  -0.003791   4.823090   0.413950   0.403024   0.405115
    16  H   -0.000150  -0.000017   0.413950   0.572347  -0.026381  -0.026917
    17  H   -0.001209   0.003354   0.403024  -0.026381   0.599499  -0.039181
    18  H    0.003375  -0.001117   0.405115  -0.026917  -0.039181   0.601501
          Atomic-Atomic Spin Densities.
               1          2          3          4          5          6
     1  C    0.824954  -0.018545  -0.002733   0.000417  -0.005010   0.000126
     2  C   -0.018545  -0.167207   0.003052  -0.000163   0.000119  -0.000010
     3  H   -0.002733   0.003052   0.025504   0.000027   0.000924  -0.000007
     4  C    0.000417  -0.000163   0.000027  -0.003362   0.004336   0.000303
     5  H   -0.005010   0.000119   0.000924   0.004336   0.001497  -0.000417
     6  H    0.000126  -0.000010  -0.000007   0.000303  -0.000417  -0.001467
     7  H    0.001435  -0.000064  -0.000164  -0.002560  -0.001322   0.000866
     8  O    0.011617  -0.000722  -0.000586  -0.000708  -0.000681   0.000066
     9  O   -0.085648   0.004129   0.004334  -0.000880   0.003842  -0.000179
    10  H    0.052308   0.000046  -0.001537   0.000618  -0.003406   0.000053
    11  C   -0.012697   0.012567   0.001733  -0.000013   0.000204  -0.000025
    12  H    0.001733  -0.000138  -0.000165  -0.000038  -0.000040   0.000029
    13  H    0.000242   0.003797  -0.000048   0.000010  -0.000013   0.000001
    14  H    0.000678   0.003135  -0.000094   0.000004  -0.000008   0.000000
    15  C   -0.018114   0.013640  -0.006235   0.000023  -0.000114   0.000001
    16  H    0.000351   0.000034   0.000375  -0.000000   0.000006  -0.000000
    17  H    0.001369   0.002797   0.000354  -0.000000   0.000002  -0.000000
    18  H    0.001551   0.002962   0.000353  -0.000005   0.000021  -0.000000
               7          8          9         10         11         12
     1  C    0.001435   0.011617  -0.085648   0.052308  -0.012697   0.001733
     2  C   -0.000064  -0.000722   0.004129   0.000046   0.012567  -0.000138
     3  H   -0.000164  -0.000586   0.004334  -0.001537   0.001733  -0.000165
     4  C   -0.002560  -0.000708  -0.000880   0.000618  -0.000013  -0.000038
     5  H   -0.001322  -0.000681   0.003842  -0.003406   0.000204  -0.000040
     6  H    0.000866   0.000066  -0.000179   0.000053  -0.000025   0.000029
     7  H    0.004498  -0.000598  -0.000985   0.001499  -0.000027   0.000015
     8  O   -0.000598   0.044963  -0.036070   0.009003  -0.001195   0.000451
     9  O   -0.000985  -0.036070   0.489052  -0.036182   0.003080  -0.001387
    10  H    0.001499   0.009003  -0.036182  -0.093169  -0.002497   0.000726
    11  C   -0.000027  -0.001195   0.003080  -0.002497   0.041407  -0.001238
    12  H    0.000015   0.000451  -0.001387   0.000726  -0.001238  -0.002338
    13  H    0.000004   0.000113  -0.000115   0.000032  -0.002586   0.000485
    14  H    0.000001   0.000045  -0.000145   0.000228  -0.004140   0.000712
    15  C    0.000007   0.000105  -0.000432   0.000646  -0.011486   0.000440
    16  H   -0.000000  -0.000003   0.000009  -0.000040   0.000132   0.000002
    17  H   -0.000000  -0.000003   0.000017  -0.000039   0.001128  -0.000045
    18  H   -0.000001  -0.000010   0.000018  -0.000032   0.001006  -0.000039
              13         14         15         16         17         18
     1  C    0.000242   0.000678  -0.018114   0.000351   0.001369   0.001551
     2  C    0.003797   0.003135   0.013640   0.000034   0.002797   0.002962
     3  H   -0.000048  -0.000094  -0.006235   0.000375   0.000354   0.000353
     4  C    0.000010   0.000004   0.000023  -0.000000  -0.000000  -0.000005
     5  H   -0.000013  -0.000008  -0.000114   0.000006   0.000002   0.000021
     6  H    0.000001   0.000000   0.000001  -0.000000  -0.000000  -0.000000
     7  H    0.000004   0.000001   0.000007  -0.000000  -0.000000  -0.000001
     8  O    0.000113   0.000045   0.000105  -0.000003  -0.000003  -0.000010
     9  O   -0.000115  -0.000145  -0.000432   0.000009   0.000017   0.000018
    10  H    0.000032   0.000228   0.000646  -0.000040  -0.000039  -0.000032
    11  C   -0.002586  -0.004140  -0.011486   0.000132   0.001128   0.001006
    12  H    0.000485   0.000712   0.000440   0.000002  -0.000045  -0.000039
    13  H   -0.008828   0.002392   0.000456   0.000001   0.000262  -0.001022
    14  H    0.002392  -0.006966   0.001094  -0.000013  -0.001208   0.000175
    15  C    0.000456   0.001094   0.086508  -0.000479  -0.004528  -0.004798
    16  H    0.000001  -0.000013  -0.000479  -0.004888   0.000802   0.000778
    17  H    0.000262  -0.001208  -0.004528   0.000802  -0.007131   0.003932
    18  H   -0.001022   0.000175  -0.004798   0.000778   0.003932  -0.006943
 Mulliken charges and spin densities:
               1          2
     1  C   -0.343653   0.754036
     2  C    0.100016  -0.140570
     3  H    0.151210   0.025089
     4  C   -0.048873  -0.001989
     5  H    0.065740  -0.000061
     6  H    0.092434  -0.000659
     7  H    0.084648   0.002605
     8  O   -0.183583   0.025788
     9  O   -0.221852   0.342460
    10  H    0.220621  -0.071743
    11  C   -0.276814   0.025351
    12  H    0.131821  -0.000834
    13  H    0.095100  -0.004815
    14  H    0.097987  -0.004110
    15  C   -0.270019   0.056733
    16  H    0.102358  -0.002934
    17  H    0.102206  -0.002293
    18  H    0.100653  -0.002054
 Sum of Mulliken charges =  -0.00000   1.00000
 Mulliken charges and spin densities with hydrogens summed into heavy atoms:
               1          2
     1  C   -0.192443   0.779124
     2  C    0.100016  -0.140570
     4  C    0.193949  -0.000104
     8  O   -0.183583   0.025788
     9  O   -0.001231   0.270717
    11  C    0.048094   0.015592
    15  C    0.035198   0.049453
 APT charges:
               1
     1  C    0.214588
     2  C   -0.017666
     3  H   -0.007717
     4  C    0.444603
     5  H   -0.042217
     6  H   -0.006112
     7  H   -0.037646
     8  O   -0.409662
     9  O    0.125801
    10  H   -0.321298
    11  C    0.032446
    12  H    0.029506
    13  H   -0.009305
    14  H   -0.009984
    15  C    0.079551
    16  H    0.001363
    17  H   -0.033252
    18  H   -0.033001
 Sum of APT charges =  -0.00000
 APT charges with hydrogens summed into heavy atoms:
               1
     1  C    0.206871
     2  C   -0.017666
     4  C    0.358629
     8  O   -0.409662
     9  O   -0.195497
    11  C    0.042663
    15  C    0.014661
 Electronic spatial extent (au):  <R**2>=           1159.6722
 Charge=             -0.0000 electrons
 Dipole moment (field-independent basis, Debye):
    X=              1.7668    Y=             -1.3036    Z=              1.8057  Tot=              2.8428
 Quadrupole moment (field-independent basis, Debye-Ang):
   XX=            -41.3472   YY=            -43.2411   ZZ=            -45.8081
   XY=              2.5810   XZ=             -3.5368   YZ=              0.4625
 Traceless Quadrupole moment (field-independent basis, Debye-Ang):
   XX=              2.1183   YY=              0.2243   ZZ=             -2.3426
   XY=              2.5810   XZ=             -3.5368   YZ=              0.4625
 Octapole moment (field-independent basis, Debye-Ang**2):
  XXX=            -15.5800  YYY=             -2.1676  ZZZ=              3.6110  XYY=             -1.5449
  XXY=             -3.9160  XXZ=              9.5242  XZZ=             -5.8092  YZZ=              1.8622
  YYZ=             -2.6148  XYZ=              0.1044
 Hexadecapole moment (field-independent basis, Debye-Ang**3):
 XXXX=          -1077.9821 YYYY=           -233.9672 ZZZZ=           -168.4525 XXXY=             12.5327
 XXXZ=            -18.6536 YYYX=             -7.7061 YYYZ=              2.3256 ZZZX=              0.0519
 ZZZY=              2.3988 XXYY=           -226.8107 XXZZ=           -212.1282 YYZZ=            -68.3481
 XXYZ=             -2.7822 YYXZ=             -0.7651 ZZXY=              0.2162
 N-N= 3.071031567183D+02 E-N=-1.425366275244D+03  KE= 3.453606042630D+02
  Exact polarizability: 115.704  -0.866  71.529   1.472   3.946  62.505
 Approx polarizability:  95.775   1.028  82.455   4.038   6.208  76.038
                          Isotropic Fermi Contact Couplings
        Atom                 a.u.       MegaHertz       Gauss      10(-4) cm-1
     1  C(13)              0.18550     208.53737      74.41132      69.56058
     2  C(13)              0.00506       5.68408       2.02822       1.89600
     3  H(1)               0.01267      56.61373      20.20119      18.88431
     4  C(13)             -0.00348      -3.91443      -1.39677      -1.30571
     5  H(1)               0.00278      12.42930       4.43508       4.14597
     6  H(1)              -0.00006      -0.26085      -0.09308      -0.08701
     7  H(1)               0.00072       3.20633       1.14410       1.06952
     8  O(17)              0.01453      -8.80637      -3.14233      -2.93749
     9  O(17)              0.03081     -18.67483      -6.66364      -6.22925
    10  H(1)              -0.02609    -116.61768     -41.61209     -38.89947
    11  C(13)              0.01890      21.25185       7.58319       7.08885
    12  H(1)              -0.00043      -1.93813      -0.69157      -0.64649
    13  H(1)              -0.00071      -3.16243      -1.12843      -1.05487
    14  H(1)              -0.00048      -2.12445      -0.75806      -0.70864
    15  C(13)              0.04261      47.90442      17.09349      15.97920
    16  H(1)              -0.00009      -0.38159      -0.13616      -0.12729
    17  H(1)               0.00040       1.79933       0.64205       0.60019
    18  H(1)               0.00046       2.04281       0.72892       0.68141
 --------------------------------------------------------
       Center         ----  Spin Dipole Couplings  ----
                      3XX-RR        3YY-RR        3ZZ-RR
 --------------------------------------------------------
     1   Atom        0.488585     -0.228111     -0.260474
     2   Atom        0.037869      0.007561     -0.045430
     3   Atom       -0.013380      0.048896     -0.035516
     4   Atom        0.000026     -0.001259      0.001233
     5   Atom        0.000661     -0.003478      0.002817
     6   Atom        0.000159     -0.003253      0.003094
     7   Atom        0.003743     -0.002341     -0.001402
     8   Atom        0.274941     -0.088638     -0.186303
     9   Atom        1.021075     -0.529437     -0.491638
    10   Atom        0.176704     -0.069448     -0.107256
    11   Atom       -0.014772      0.032121     -0.017349
    12   Atom       -0.001873      0.010089     -0.008216
    13   Atom       -0.002304      0.001865      0.000438
    14   Atom        0.000090      0.003408     -0.003498
    15   Atom        0.060586     -0.034932     -0.025654
    16   Atom        0.005411      0.001732     -0.007143
    17   Atom        0.005717     -0.003901     -0.001816
    18   Atom        0.001408     -0.005521      0.004113
 --------------------------------------------------------
                        XY            XZ            YZ
 --------------------------------------------------------
     1   Atom       -0.367236      0.261099     -0.123146
     2   Atom        0.027494      0.045704      0.023118
     3   Atom        0.000705      0.011672      0.016317
     4   Atom       -0.001659     -0.006483     -0.003967
     5   Atom        0.000850     -0.005532     -0.005305
     6   Atom       -0.000182     -0.004121     -0.000398
     7   Atom        0.003321     -0.004731     -0.002242
     8   Atom       -0.188160      0.066000     -0.060081
     9   Atom       -0.682768      0.735655     -0.273303
    10   Atom       -0.131769      0.063309     -0.026814
    11   Atom        0.008608      0.003013      0.010794
    12   Atom        0.001558      0.001906      0.002860
    13   Atom        0.002161      0.002038      0.004495
    14   Atom        0.004449     -0.000598     -0.000354
    15   Atom        0.000001      0.038655      0.000929
    16   Atom       -0.006786      0.004240     -0.000881
    17   Atom        0.003706     -0.000827     -0.002211
    18   Atom        0.000860      0.003730      0.002262
 --------------------------------------------------------


 ---------------------------------------------------------------------------------
              Anisotropic Spin Dipole Couplings in Principal Axis System
 ---------------------------------------------------------------------------------

       Atom             a.u.   MegaHertz   Gauss  10(-4) cm-1        Axes

              Baa    -0.3861   -51.814   -18.489   -17.283  0.3069  0.9156  0.2596
     1 C(13)  Bbb    -0.3414   -45.816   -16.348   -15.283 -0.3541 -0.1433  0.9242
              Bcc     0.7276    97.630    34.837    32.566  0.8834 -0.3756  0.2803
 
              Baa    -0.0672    -9.012    -3.216    -3.006 -0.3607 -0.1520  0.9202
     2 C(13)  Bbb    -0.0085    -1.146    -0.409    -0.382 -0.4780  0.8773 -0.0424
              Bcc     0.0757    10.158     3.625     3.388  0.8009  0.4552  0.3891
 
              Baa    -0.0429   -22.905    -8.173    -7.640 -0.3593 -0.1606  0.9193
     3 H(1)   Bbb    -0.0091    -4.875    -1.740    -1.626  0.9322 -0.1084  0.3454
              Bcc     0.0521    27.780     9.912     9.266  0.0442  0.9810  0.1887
 
              Baa    -0.0082    -1.094    -0.391    -0.365  0.5971  0.5030  0.6249
     4 C(13)  Bbb     0.0006     0.079     0.028     0.026 -0.5266  0.8334 -0.1677
              Bcc     0.0076     1.016     0.362     0.339 -0.6051 -0.2289  0.7625
 
              Baa    -0.0072    -3.838    -1.370    -1.280  0.3252  0.7493  0.5768
     5 H(1)   Bbb    -0.0020    -1.047    -0.374    -0.349  0.7801 -0.5574  0.2843
              Bcc     0.0092     4.885     1.743     1.630 -0.5345 -0.3575  0.7658
 
              Baa    -0.0035    -1.845    -0.659    -0.616  0.3711  0.8832  0.2869
     6 H(1)   Bbb    -0.0025    -1.359    -0.485    -0.453  0.7288 -0.4685  0.4994
              Bcc     0.0060     3.204     1.143     1.069 -0.5754 -0.0238  0.8175
 
              Baa    -0.0043    -2.305    -0.822    -0.769  0.3304  0.4093  0.8505
     7 H(1)   Bbb    -0.0038    -2.012    -0.718    -0.671 -0.5022  0.8392 -0.2087
              Bcc     0.0081     4.317     1.540     1.440  0.7991  0.3582 -0.4828
 
              Baa    -0.2168    15.685     5.597     5.232  0.0874  0.5252  0.8465
     8 O(17)  Bbb    -0.1509    10.916     3.895     3.641  0.4125  0.7544 -0.5106
              Bcc     0.3676   -26.601    -9.492    -8.873  0.9068 -0.3938  0.1507
 
              Baa    -0.7924    57.335    20.459    19.125 -0.4776 -0.4662  0.7447
     9 O(17)  Bbb    -0.7843    56.749    20.250    18.929  0.0801  0.8209  0.5654
              Bcc     1.5766  -114.084   -40.708   -38.054  0.8749 -0.3297  0.3548
 
              Baa    -0.1267   -67.623   -24.130   -22.557  0.4135  0.9052 -0.0977
    10 H(1)   Bbb    -0.1205   -64.307   -22.946   -21.451 -0.1341  0.1667  0.9768
              Bcc     0.2473   131.931    47.076    44.007  0.9006 -0.3908  0.1904
 
              Baa    -0.0200    -2.682    -0.957    -0.895 -0.3053 -0.1445  0.9412
    11 C(13)  Bbb    -0.0160    -2.147    -0.766    -0.716  0.9359 -0.2277  0.2687
              Bcc     0.0360     4.829     1.723     1.611  0.1755  0.9630  0.2048
 
              Baa    -0.0090    -4.824    -1.721    -1.609 -0.2294 -0.1256  0.9652
    12 H(1)   Bbb    -0.0018    -0.934    -0.333    -0.312  0.9626 -0.1764  0.2058
              Bcc     0.0108     5.758     2.055     1.921  0.1444  0.9763  0.1614
 
              Baa    -0.0035    -1.863    -0.665    -0.622 -0.5271 -0.4113  0.7436
    13 H(1)   Bbb    -0.0032    -1.702    -0.607    -0.568  0.7898 -0.5600  0.2501
              Bcc     0.0067     3.566     1.272     1.189  0.3135  0.7192  0.6200
 
              Baa    -0.0037    -1.955    -0.697    -0.652  0.3600 -0.1807  0.9153
    14 H(1)   Bbb    -0.0029    -1.533    -0.547    -0.511  0.7379 -0.5451 -0.3979
              Bcc     0.0065     3.488     1.245     1.163  0.5708  0.8187 -0.0629
 
              Baa    -0.0406    -5.445    -1.943    -1.816 -0.3528 -0.1519  0.9233
    15 C(13)  Bbb    -0.0348    -4.670    -1.666    -1.558 -0.0571  0.9884  0.1408
              Bcc     0.0754    10.115     3.609     3.374  0.9340  0.0030  0.3574
 
              Baa    -0.0086    -4.598    -1.641    -1.534 -0.3529 -0.1529  0.9231
    16 H(1)   Bbb    -0.0028    -1.502    -0.536    -0.501  0.4974  0.8050  0.3235
              Bcc     0.0114     6.100     2.177     2.035  0.7925 -0.5733  0.2081
 
              Baa    -0.0060    -3.199    -1.141    -1.067 -0.2478  0.8757  0.4144
    17 H(1)   Bbb    -0.0012    -0.661    -0.236    -0.220  0.2884 -0.3416  0.8945
              Bcc     0.0072     3.860     1.377     1.287  0.9249  0.3412 -0.1679
 
              Baa    -0.0060    -3.215    -1.147    -1.072 -0.0045  0.9763 -0.2162
    18 H(1)   Bbb    -0.0011    -0.607    -0.217    -0.202  0.8327 -0.1160 -0.5415
              Bcc     0.0072     3.822     1.364     1.275  0.5538  0.1824  0.8124
 

 ---------------------------------------------------------------------------------

 Calling FoFJK, ICntrl=  10100127 FMM=F ISym2X=0 I1Cent= 0 IOpClX= 1 NMat=1 NMatS=1 NMatT=0.
 ***** Axes restored to original set *****
 -------------------------------------------------------------------
 Center     Atomic                   Forces (Hartrees/Bohr)
 Number     Number              X              Y              Z
 -------------------------------------------------------------------
      1        6           0.004453363   -0.003157726    0.003219464
      2        6          -0.002719819    0.002089664   -0.001290785
      3        1          -0.000236508    0.001176990   -0.000255492
      4        6           0.001829221   -0.003993937   -0.002154899
      5        1           0.000947502    0.000245980   -0.000241052
      6        1          -0.000204168    0.000043995    0.000438469
      7        1          -0.000285146   -0.000179065   -0.000689612
      8        8           0.003143355    0.009652676   -0.009773384
      9        8          -0.000107257   -0.003899086    0.012592192
     10        1          -0.005573305   -0.002611180   -0.001191519
     11        6           0.000301751    0.000441137    0.000170044
     12        1          -0.001258118    0.000030131   -0.000545917
     13        1           0.000157481    0.000267001    0.000471439
     14        1           0.000462575    0.000124969   -0.000269563
     15        6          -0.000374854    0.000125994   -0.000318536
     16        1          -0.000166758    0.000440456   -0.000136144
     17        1          -0.000036911   -0.000446328   -0.000306312
     18        1          -0.000332406   -0.000351670    0.000281607
 -------------------------------------------------------------------
 Cartesian Forces:  Max     0.012592192 RMS     0.003032118
 FormGI is forming the generalized inverse of G from B-inverse, IUseBI=4.

 GradGradGradGradGradGradGradGradGradGradGradGradGradGradGradGradGradGrad
 Berny optimization.
 Internal  Forces:  Max     0.014640593 RMS     0.002291827
 Search for a saddle point.
 Step number   1 out of a maximum of  108
 All quantities printed in internal units (Hartrees-Bohrs-Radians)
 Swapping is turned off.
 Second derivative matrix not updated -- analytic derivatives used.
 ITU=  0
     Eigenvalues ---   -0.06082   0.00144   0.00260   0.00370   0.00724
     Eigenvalues ---    0.00967   0.01308   0.01679   0.01973   0.03514
     Eigenvalues ---    0.04159   0.05570   0.05629   0.05761   0.05934
     Eigenvalues ---    0.06172   0.08456   0.08584   0.10542   0.12084
     Eigenvalues ---    0.12493   0.13341   0.13781   0.14097   0.14687
     Eigenvalues ---    0.15110   0.16642   0.17541   0.18414   0.19623
     Eigenvalues ---    0.20693   0.22106   0.28530   0.31125   0.32148
     Eigenvalues ---    0.32697   0.33262   0.33372   0.33497   0.33993
     Eigenvalues ---    0.34309   0.34532   0.34813   0.35597   0.35884
     Eigenvalues ---    0.36534   0.43414   0.65893
 Eigenvectors required to have negative eigenvalues:
                          R3        R11       A1        R10       A14
   1                   -0.78594   0.56404  -0.14338  -0.14027   0.07812
                          A3        A2        D22       A13       A9
   1                    0.07295   0.07051   0.03923   0.03151  -0.02889
 RFO step:  Lambda0=1.039612509D-04 Lambda=-1.16735660D-03.
 Linear search not attempted -- option 19 set.
 Iteration  1 RMS(Cart)=  0.07921286 RMS(Int)=  0.00231550
 Iteration  2 RMS(Cart)=  0.00434566 RMS(Int)=  0.00012851
 Iteration  3 RMS(Cart)=  0.00001813 RMS(Int)=  0.00012829
 Iteration  4 RMS(Cart)=  0.00000000 RMS(Int)=  0.00012829
 Variable       Old X    -DE/DX   Delta X   Delta X   Delta X     New X
                                 (Linear)    (Quad)   (Total)
    R1        2.48263   0.00511   0.00000   0.00547   0.00547   2.48810
    R2        2.04507  -0.00118   0.00000  -0.00349  -0.00349   2.04158
    R3        2.68957  -0.00077   0.00000   0.03201   0.03201   2.72158
    R4        2.84009   0.00080   0.00000   0.00100   0.00100   2.84109
    R5        2.85407   0.00104   0.00000   0.00257   0.00257   2.85664
    R6        2.06600  -0.00077   0.00000  -0.00296  -0.00296   2.06305
    R7        2.05695  -0.00041   0.00000  -0.00044  -0.00044   2.05651
    R8        2.05979  -0.00048   0.00000  -0.00202  -0.00202   2.05777
    R9        2.66709   0.00522   0.00000   0.01266   0.01266   2.67975
   R10        2.62632   0.01464   0.00000   0.05028   0.05028   2.67660
   R11        2.09399   0.00558   0.00000  -0.01192  -0.01192   2.08207
   R12        2.05233  -0.00132   0.00000  -0.00257  -0.00257   2.04977
   R13        2.06328  -0.00039   0.00000  -0.00105  -0.00105   2.06224
   R14        2.06333  -0.00039   0.00000  -0.00118  -0.00118   2.06215
   R15        2.05494  -0.00043   0.00000  -0.00107  -0.00107   2.05387
   R16        2.06291  -0.00035   0.00000  -0.00102  -0.00102   2.06189
   R17        2.06301  -0.00031   0.00000  -0.00109  -0.00109   2.06193
    A1        2.29448  -0.00146   0.00000   0.00464   0.00463   2.29911
    A2        2.03032   0.00226   0.00000   0.01705   0.01702   2.04735
    A3        1.95832  -0.00080   0.00000  -0.02157  -0.02159   1.93673
    A4        2.15630   0.00092   0.00000  -0.00080  -0.00080   2.15550
    A5        2.10967  -0.00059   0.00000  -0.00294  -0.00294   2.10673
    A6        2.01720  -0.00033   0.00000   0.00375   0.00375   2.02095
    A7        1.91811  -0.00028   0.00000  -0.00096  -0.00095   1.91716
    A8        1.91957  -0.00052   0.00000  -0.00009  -0.00012   1.91945
    A9        1.92497   0.00095   0.00000   0.00731   0.00730   1.93227
   A10        1.92622  -0.00023   0.00000  -0.00173  -0.00173   1.92449
   A11        1.84518  -0.00077   0.00000  -0.00881  -0.00880   1.83638
   A12        1.92866   0.00086   0.00000   0.00404   0.00402   1.93269
   A13        1.88683   0.00125   0.00000  -0.00754  -0.00754   1.87929
   A14        1.81621   0.00451   0.00000   0.00030   0.00030   1.81651
   A15        1.95438   0.00031   0.00000   0.00051   0.00051   1.95489
   A16        1.91775   0.00043   0.00000   0.00207   0.00207   1.91982
   A17        1.91316   0.00040   0.00000   0.00416   0.00416   1.91732
   A18        1.89991  -0.00043   0.00000  -0.00319  -0.00319   1.89672
   A19        1.90759  -0.00040   0.00000  -0.00198  -0.00198   1.90561
   A20        1.86901  -0.00036   0.00000  -0.00175  -0.00176   1.86725
   A21        1.95643   0.00008   0.00000   0.00027   0.00027   1.95670
   A22        1.91558   0.00045   0.00000   0.00245   0.00244   1.91803
   A23        1.91617   0.00055   0.00000   0.00330   0.00329   1.91947
   A24        1.89979  -0.00038   0.00000  -0.00308  -0.00308   1.89671
   A25        1.90005  -0.00040   0.00000  -0.00282  -0.00282   1.89723
   A26        1.87386  -0.00034   0.00000  -0.00022  -0.00023   1.87363
   A27        3.07341   0.00168   0.00000   0.03907   0.03931   3.11272
   A28        3.07462   0.00256   0.00000   0.06412   0.06416   3.13878
    D1        3.13060   0.00003   0.00000   0.00365   0.00340   3.13400
    D2       -0.00510   0.00003   0.00000   0.00285   0.00260  -0.00250
    D3       -0.02372  -0.00027   0.00000   0.01535   0.01560  -0.00812
    D4        3.12377  -0.00027   0.00000   0.01455   0.01480   3.13856
    D5       -0.99936  -0.00040   0.00000   0.05724   0.05786  -0.94150
    D6        2.09995   0.00015   0.00000   0.08906   0.08843   2.18838
    D7       -0.00664   0.00002   0.00000   0.02798   0.02798   0.02134
    D8        2.10697  -0.00001   0.00000   0.02570   0.02570   2.13267
    D9       -2.12681   0.00004   0.00000   0.02726   0.02726  -2.09955
   D10        3.12935   0.00002   0.00000   0.02872   0.02872  -3.12511
   D11       -1.04023  -0.00001   0.00000   0.02645   0.02645  -1.01378
   D12        1.00918   0.00004   0.00000   0.02800   0.02801   1.03719
   D13       -0.00479   0.00001   0.00000   0.00367   0.00367  -0.00112
   D14        2.10852  -0.00010   0.00000   0.00163   0.00163   2.11015
   D15       -2.11885   0.00009   0.00000   0.00478   0.00479  -2.11406
   D16       -3.14094   0.00001   0.00000   0.00294   0.00294  -3.13800
   D17       -1.02763  -0.00010   0.00000   0.00090   0.00090  -1.02673
   D18        1.02818   0.00008   0.00000   0.00406   0.00406   1.03224
   D19        1.14107   0.00034   0.00000   0.00790   0.00793   1.14900
   D20       -3.06943   0.00007   0.00000   0.00552   0.00552  -3.06392
   D21       -0.98513  -0.00020   0.00000   0.00043   0.00041  -0.98472
   D22       -1.46744  -0.00071   0.00000  -0.02732  -0.02732  -1.49475
         Item               Value     Threshold  Converged?
 Maximum Force            0.014641     0.000450     NO 
 RMS     Force            0.002292     0.000300     NO 
 Maximum Displacement     0.213565     0.001800     NO 
 RMS     Displacement     0.082099     0.001200     NO 
 Predicted change in Energy=-5.467943D-04
 GradGradGradGradGradGradGradGradGradGradGradGradGradGradGradGradGradGrad

                          Input orientation:                          
 ---------------------------------------------------------------------
 Center     Atomic      Atomic             Coordinates (Angstroms)
 Number     Number       Type             X           Y           Z
 ---------------------------------------------------------------------
      1          6           0       -0.707936   -0.947789    0.531496
      2          6           0       -1.572490   -0.077133    0.053941
      3          1           0       -0.783542   -2.009805    0.714737
      4          6           0        2.611087   -0.430541   -0.883541
      5          1           0        1.854762   -1.146442   -1.211111
      6          1           0        3.000303    0.114209   -1.741482
      7          1           0        3.417831   -0.950767   -0.369452
      8          8           0        2.036191    0.557762   -0.044702
      9          8           0        1.603292   -0.083833    1.141524
     10          1           0        0.595549   -0.453867    0.893626
     11          6           0       -1.268760    1.385279   -0.117593
     12          1           0       -0.253340    1.626864    0.177551
     13          1           0       -1.407995    1.675557   -1.160313
     14          1           0       -1.965599    1.980512    0.474794
     15          6           0       -2.961335   -0.512721   -0.354114
     16          1           0       -3.117248   -1.577564   -0.202244
     17          1           0       -3.707139    0.035442    0.223644
     18          1           0       -3.130464   -0.280973   -1.406843
 ---------------------------------------------------------------------
                    Distance matrix (angstroms):
                    1          2          3          4          5
     1  C    0.000000
     2  C    1.316645   0.000000
     3  H    1.080357   2.189592   0.000000
     4  C    3.644968   4.301871   4.070882   0.000000
     5  H    3.105409   3.806552   3.378600   1.091717   0.000000
     6  H    4.477198   4.916360   4.986174   1.088257   1.784040
     7  H    4.222993   5.083877   4.466382   1.088926   1.786019
     8  O    3.182597   3.665434   3.888450   1.418061   2.073098
     9  O    2.541718   3.356855   3.096530   2.288394   2.593698
    10  H    1.440198   2.355291   2.086825   2.687240   2.548567
    11  C    2.485769   1.503438   3.529137   4.351677   4.166747
    12  H    2.638328   2.158482   3.714169   3.682903   3.750160
    13  H    3.199100   2.138549   4.181823   4.545907   4.314144
    14  H    3.187456   2.136715   4.168628   5.348299   5.216826
    15  C    2.459958   1.511666   2.850698   5.598119   4.932629
    16  H    2.596107   2.168686   2.544379   5.881637   5.091617
    17  H    3.171235   2.144341   3.601614   6.431406   5.864308
    18  H    3.173396   2.145396   3.605274   5.767289   5.063578
                    6          7          8          9         10
     6  H    0.000000
     7  H    1.786329   0.000000
     8  O    2.001327   2.071244   0.000000
     9  O    3.209764   2.515388   1.416396   0.000000
    10  H    3.612387   3.131701   1.994819   1.101783   0.000000
    11  C    4.741047   5.242583   3.407756   3.462997   2.807253
    12  H    4.069029   4.518948   2.536598   2.702371   2.358563
    13  H    4.712606   5.550823   3.788993   4.178726   3.573136
    14  H    5.749361   6.187606   4.278834   4.176486   3.558244
    15  C    6.152963   6.394207   5.120247   4.822520   3.769846
    16  H    6.531139   6.567198   5.580535   5.130345   4.030941
    17  H    6.989828   7.217311   5.773272   5.390493   4.381943
    18  H    6.152597   6.663706   5.408625   5.379729   4.382376
                   11         12         13         14         15
    11  C    0.000000
    12  H    1.084690   0.000000
    13  H    1.091289   1.767902   0.000000
    14  H    1.091242   1.773486   1.754279   0.000000
    15  C    2.554047   3.491953   2.802032   2.809766   0.000000
    16  H    3.493209   4.314461   3.797661   3.800602   1.086859
    17  H    2.807881   3.803088   3.145056   2.622848   1.091105
    18  H    2.811495   3.798420   2.618336   3.164140   1.091124
                   16         17         18
    16  H    0.000000
    17  H    1.769502   0.000000
    18  H    1.769853   1.758170   0.000000
 Stoichiometry    C5H11O2(2)
 Framework group  C1[X(C5H11O2)]
 Deg. of freedom    48
 Full point group                 C1      NOp   1
 Largest Abelian subgroup         C1      NOp   1
 Largest concise Abelian subgroup C1      NOp   1
                         Standard orientation:                         
 ---------------------------------------------------------------------
[...]
 ,0.1892055,0.0719615,0.6528617,-0.0950234,-0.0173011,-0.5062959,-0.177
 154,-0.1973854,-0.9941432,-0.2361621,-0.0061486,-0.4347132,0.0545754,0
 .0240464,-0.2343407,-0.0319743,0.1047126,-0.0384534,-0.0370605,-0.0552
 325,-0.1202246,-0.0209315,0.0143974,-0.0440379,0.0043627,0.1531827,0.0
 012089,-0.0749006,-0.0269238,-0.0185457,0.0397135,0.0113635,-0.0291831
 ,0.0030047,0.0527676,0.0730174,-0.0055385,-0.0297055,0.0426463,0.00751
 89,0.0160927,-0.0525398,0.0712314,-0.1086057,-0.0090167,0.0761423,0.07
 66356,0.0861216,-0.0350352,-0.0118499,0.0746114,-0.0617656,0.0170292,0
 .06561,-0.0532691,-0.0130906,0.1643696,0.0649851,0.0211999,-0.0494561,
 -0.0040206,0.1055414,0.0525277,0.0041886,-0.014322,-0.0700137,-0.11075
 96,0.0187441,0.0087316,0.042917,0.0637132,-0.127361,0.0455693,0.017517
 5,0.064456,0.0131021,-0.0651798,0.0370835,-0.061281,0.0188276,-0.05670
 67,-0.006041,-0.019119,-0.0115609,0.0657808,0.0455249,-0.0847029,0.036
 2672,-0.1052849\Polar=115.0174087,0.6151794,71.3201072,2.1911201,-5.25
 12434,62.7839307\PG=C01 [X(C5H11O2)]\NImag=1\\0.32514354,-0.19365613,0
 .67464858,0.13662224,-0.20839471,0.15858275,-0.26120395,0.22144600,-0.
 12813137,0.56666817,0.19441325,-0.29433445,0.12614058,-0.13951775,0.62
 851651,-0.12132134,0.13505034,-0.11563746,0.16834251,-0.14956215,0.273
 48395,-0.03086597,-0.03806371,0.00543277,0.00509415,0.02381839,-0.0031
 3701,0.03247046,-0.01543100,-0.33560313,0.06609230,-0.01028460,-0.0086
 0934,-0.00206095,0.02361223,0.34630418,0.00074569,0.05761758,-0.035713
 27,0.00462141,0.01016852,-0.00211579,0.00058515,-0.06725528,0.03065681
 ,-0.00503610,0.00008650,-0.00137830,0.00072351,0.00082553,0.00019226,0
 .00129798,-0.00002239,0.00070516,0.56085653,0.00656554,0.00151856,0.00
 154711,-0.00196516,-0.00067170,-0.00049652,-0.00156412,-0.00005431,0.0
 0037273,0.03717353,0.55389888,0.00717466,0.00145776,0.00211783,-0.0019
 6919,-0.00064014,-0.00056451,-0.00164170,-0.00013835,0.00013303,0.0325
 7588,-0.08096140,0.53227525,0.00085818,-0.00027722,0.00020172,-0.00044
 084,-0.00006815,-0.00027542,-0.00025233,0.00002356,-0.00034061,-0.1931
 0057,-0.11568596,-0.06069140,0.19887473,-0.00241283,-0.00024038,-0.000
 45004,0.00066002,0.00016813,0.00020374,0.00045071,0.00000931,-0.000003
 49,-0.11112359,-0.13994524,-0.04493496,0.12161825,0.16055751,-0.001915
 42,0.00009890,-0.00027854,0.00055061,-0.00001994,0.00022001,0.00058889
 ,0.00003959,-0.00004835,-0.05882198,-0.04085722,-0.07458423,0.06362746
 ,0.06088247,0.08117136,0.00035717,0.00019430,0.00021572,-0.00012047,-0
 .00026464,-0.00000765,-0.00008791,0.00001922,-0.00010651,-0.08343925,-
 0.05074491,0.06841075,-0.00684790,-0.01251949,0.01740973,0.08613713,-0
 .00058251,-0.00001470,0.00007866,0.00022149,0.00004325,0.00008001,0.00
 020692,0.00000061,-0.00005753,-0.05602543,-0.13964377,0.11891832,-0.00
 484673,-0.00882508,0.01473292,0.05622118,0.14232032,-0.00096897,-0.000
 18363,-0.00011985,0.00035104,0.00023132,0.00008877,0.00027075,-0.00000
 081,0.00000905,0.06903840,0.10819416,-0.19552501,-0.00415411,-0.005357
 79,0.01013016,-0.08315439,-0.11898855,0.22015916,0.00077404,0.00022338
 ,0.00034447,-0.00015736,-0.00022471,-0.00001391,-0.00026769,-0.0000217
 4,-0.00015120,-0.19178971,0.09161242,-0.09095284,-0.01594332,0.0114134
 4,-0.01253036,0.01090083,-0.00727913,0.00502868,0.20532561,-0.00122761
 ,-0.00026495,-0.00039289,0.00038503,0.00005471,0.00016456,0.00024518,0
 .00000592,-0.00001629,0.09166190,-0.11306463,0.05993451,-0.01515251,0.
 01141935,-0.00856419,0.01230443,-0.00718338,0.00751607,-0.11040572,0.1
 2930844,-0.00003295,0.00011256,0.00000907,0.00001810,-0.00007852,0.000
 03349,0.00000427,0.00001685,-0.00005085,-0.09543678,0.06755066,-0.1095
 4684,-0.00608455,0.00593126,-0.00287358,-0.01800048,0.01006577,-0.0085
 1671,0.09563232,-0.06117653,0.11225635,0.00756360,-0.00024284,0.001544
 12,-0.00144554,-0.00101110,0.00021244,-0.00234596,0.00027059,0.0002961
 7,-0.08167024,0.05379011,0.02680852,0.01468723,-0.01044037,-0.00703830
 ,-0.00634698,0.00834426,0.00990621,-0.01003060,0.02509279,0.02533199,0
 .14723957,0.01451537,0.00254015,0.00425210,-0.00290374,-0.00219842,-0.
 00058327,-0.00308866,0.00012969,-0.00092788,0.03608479,-0.17588486,-0.
 04118241,0.01210749,-0.02459469,-0.02500867,-0.00757513,0.01270433,0.0
 1280774,0.01527577,-0.02219267,-0.02081554,-0.02925686,0.31657925,-0.0
 3214448,-0.00876547,-0.00868816,0.00830654,0.00524370,0.00180963,0.006
 14315,0.00032640,0.00144337,0.02868522,-0.07926081,-0.10508787,0.01072
 230,-0.01972197,-0.01837935,0.01302549,-0.01795310,-0.02245782,0.00611
 707,0.00096215,0.00403691,-0.11891926,0.01416279,0.29746396,-0.1168692
 2,-0.03402162,-0.03392254,0.01005766,0.00098527,0.00330803,0.00794793,
 -0.00119251,0.00247276,-0.01278425,-0.01369497,0.02809433,0.00335379,-
 0.00023059,-0.00439436,-0.00062401,0.00351216,0.00330555,0.00259593,-0
 .00392939,-0.00131031,-0.05065682,-0.00840241,0.02655827,0.16587484,-0
 .05727238,-0.01183378,-0.01646898,0.00697286,0.00220637,0.00188405,0.0
 0680292,0.00054190,0.00150333,-0.00190207,0.01438939,-0.00943470,0.002
 77187,0.00059706,-0.00183845,0.00232033,0.00080500,-0.00391159,-0.0001
 2399,0.00162632,-0.00194777,-0.02744836,-0.09028985,0.08845268,0.03811
 181,0.08246212,0.00301299,-0.00007308,0.00742749,-0.00531332,-0.005386
 98,-0.00201414,-0.00417181,-0.00118602,-0.00299701,0.02024152,0.021970
 40,-0.04818620,-0.00201259,0.00363451,0.00421367,0.00242430,-0.0062664
 3,-0.00331760,-0.00308351,0.00144958,0.00492719,0.03521025,0.05065284,
 -0.15691814,0.00765892,-0.06541353,0.25028599,0.10644446,0.02998495,0.
 03731720,-0.02430897,-0.00341689,-0.00931623,-0.01365860,0.00077127,-0
 .00621340,0.00470446,-0.00527326,-0.00802502,-0.00112542,0.00254076,0.
 00261850,0.00018568,0.00020744,0.00027910,-0.00142146,0.00107566,-0.00
 006331,-0.01423018,-0.02689407,0.05027014,-0.00918466,0.02880746,-0.05
 208717,-0.04673193,0.04122423,-0.00831179,0.01322129,-0.00145319,0.001
 14565,0.00000309,-0.01318469,-0.00333975,-0.00294222,0.00370552,-0.000
 84825,-0.00312445,-0.00065183,0.00111200,0.00055946,-0.00010759,-0.000
 19325,-0.00019799,-0.00048389,0.00031459,0.00029437,-0.02069766,-0.018
 37245,0.01995559,0.01978696,0.00123419,-0.00320589,-0.03024581,0.02822
 132,0.02735087,0.00799238,-0.01344576,-0.00807592,-0.00031062,0.000645
 92,-0.00183712,0.00187009,0.00291744,0.00402285,0.00235484,-0.00071247
 ,-0.00102948,-0.00028705,0.00042906,-0.00019463,-0.00060636,-0.0004854
 8,-0.00036253,0.00004464,-0.00028263,0.02721240,0.00734786,0.00535949,
 -0.03207854,0.00648236,-0.05225561,-0.01409054,-0.02582489,0.05746669,
 0.00770609,0.01980271,-0.00318303,-0.08850917,-0.02830433,0.00153805,-
 0.00183705,0.00178009,-0.00409186,-0.00010957,-0.00002703,0.00018798,0
 .00005386,-0.00001502,-0.00006088,-0.00000339,0.00000937,0.00001016,0.
 00004286,-0.00006599,-0.00005462,-0.00027513,-0.00041080,0.00089197,0.
 00127236,0.00001209,-0.00053024,-0.00119311,0.00148060,-0.00031134,0.5
 9544289,0.00676965,-0.02974380,0.00979313,-0.03600923,-0.19333629,0.01
 333274,-0.00075157,0.00052457,0.00152749,0.00025862,0.00000882,0.00009
 557,-0.00015863,-0.00000543,0.00000677,-0.00005452,0.00001665,0.000038
 66,-0.00002605,-0.00006532,-0.00009257,0.00100624,-0.00094347,0.001637
 63,0.00238757,0.00117077,-0.00147810,-0.00399703,-0.00093449,-0.000953
 55,-0.00480265,0.47642348,0.00010846,0.01446367,0.00148082,0.00323230,
 0.01628761,-0.07795661,-0.00376151,0.00272649,0.00729795,0.00014755,0.
 00066555,0.00074013,-0.00029157,-0.00013866,-0.00005077,-0.00000352,-0
 .00001494,-0.00003296,0.00001609,-0.00016545,-0.00009446,0.00174028,-0
 .00070461,-0.00016221,-0.00010554,0.00002421,-0.00097724,0.00019146,0.
 00039849,-0.00091203,0.01978931,0.00970213,0.53878886,0.00088276,0.000
 97441,0.00025373,-0.00362773,-0.00059973,-0.00052298,-0.00006994,0.000
 12852,-0.00004564,-0.00006353,0.00012480,0.00065151,0.00001671,-0.0000
 9747,-0.00006861,-0.00000029,0.00000973,-0.00000766,0.00008064,-0.0001
 4857,-0.00009216,-0.00190906,0.00067918,-0.00048652,-0.00023710,0.0006
 4120,-0.00040305,-0.00013800,-0.00021779,-0.00018117,-0.29939598,-0.05
 468890,-0.06630238,0.32144522,-0.00106328,0.00104294,-0.00079791,-0.03
 132008,-0.00543461,-0.00895136,0.00014659,0.00036627,-0.00006062,0.000
 14277,-0.00030127,-0.00049098,0.00003831,0.00000716,0.00002803,-0.0000
 1434,0.00002040,0.00006176,-0.00006428,0.00011735,0.00006878,0.0001961
 1,0.00029534,-0.00076783,-0.00004186,-0.00014739,0.00122747,0.00024324
 ,-0.00124790,0.00033893,-0.04979487,-0.05979173,-0.01273743,0.05771324
 ,0.06714591,0.00005606,-0.00002392,-0.00043608,0.00567984,0.00040620,-
 0.00007616,0.00014760,-0.00007930,-0.00003311,0.00004922,-0.00015080,-
 0.00021742,0.00005327,-0.00006556,0.00001588,0.00009177,-0.00001986,-0
 .00004618,-0.00007028,0.00007449,0.00002847,-0.00098865,0.00056946,-0.
 00011337,-0.00038178,-0.00053702,-0.00012953,0.00059724,0.00086990,0.0
 0044050,-0.06614013,-0.01404542,-0.06613711,0.07257242,0.01343978,0.06
 647556,0.00032799,-0.00101007,-0.00001769,0.00016648,0.00096633,0.0064
 8352,0.00025256,0.00010939,-0.00017623,-0.00005895,-0.00006214,-0.0001
 9805,0.00000535,0.00010272,0.00000879,-0.00006364,-0.00000271,0.000033
 15,0.00001407,0.00005092,0.00006198,0.00013388,0.00002467,0.00004414,-
 0.00005012,0.00029113,0.00028782,-0.00013888,-0.00047024,-0.00012906,-
 0.05351565,0.00625432,-0.03807670,-0.00204814,0.00816292,-0.02992304,0
 .05214879,-0.00340357,-0.00272198,-0.00032737,0.00567987,-0.01313348,0
 .03445749,0.00143714,-0.00102021,-0.00132967,-0.00014334,0.00008107,0.
 00005605,0.00006846,-0.00007551,0.00001698,0.00005781,0.00000762,-0.00
 002663,0.00000528,-0.00001964,-0.00000102,0.00004542,0.00031728,-0.000
 67711,-0.00065236,-0.00037172,0.00074107,0.00088136,0.00014274,0.00033
 242,0.00703392,-0.05845685,0.06137281,0.00007247,0.00085816,-0.0067455
 0,-0.00880484,0.06822575,0.00151098,0.00027817,0.00032696,-0.00183261,
 0.00249402,-0.00281857,-0.00011198,0.00009772,0.00009491,0.00007511,-0
 .00007397,-0.00015181,-0.00001584,0.00004383,-0.00000225,-0.00004842,0
 .00000287,0.00003487,-0.00001701,0.00002917,0.00001974,-0.00016639,-0.
 00005776,0.00029816,0.00024045,0.00021135,-0.00004435,-0.00023576,-0.0
 0024636,-0.00015756,-0.03779263,0.05988517,-0.28629851,-0.00001892,0.0
 0108144,-0.00637911,0.04110821,-0.06786555,0.31227319,0.00030657,-0.00
 095435,0.00049252,0.00440811,-0.00207731,-0.00621324,0.00015206,0.0001
 7436,0.00036181,0.00008106,-0.00011609,-0.00023783,0.00001687,-0.00002
 096,0.00002535,0.00002693,-0.00000462,0.00000338,-0.00006088,0.0000737
 8,0.00003197,-0.00060238,0.00048182,-0.00041750,-0.00024475,-0.0001476
 5,0.00038318,0.00013937,-0.00018871,0.00022722,-0.14818378,0.08755573,
 0.08973114,-0.01579255,0.01733381,0.01822564,0.00252714,-0.00339168,-0
 .00302370,0.15658205,-0.00328550,-0.00244610,-0.00091166,0.02167002,-0
 .02410137,-0.01685601,0.00012806,-0.00011652,0.00209041,-0.00012323,0.
 00007950,0.00006176,-0.00000465,-0.00004056,0.00001756,0.00004613,-0.0
 0000079,-0.00003403,0.00000893,-0.00000046,0.00001621,0.00000831,0.000
 43890,-0.00070906,-0.00060798,-0.00043254,0.00045703,0.00080997,0.0000
 6448,-0.00000118,0.08959085,-0.12544763,-0.08371299,-0.00377508,0.0038
 6508,0.00500694,-0.00550132,0.00471264,0.00423946,-0.09863946,0.141384
 84,0.00017005,0.00037218,0.00013685,-0.00411917,0.00581972,0.00378024,
 0.00001762,0.00011476,-0.00057607,-0.00003697,-0.00002563,-0.00006728,
 0.00001146,0.00004182,-0.00000262,-0.00002393,-0.00000277,0.00000565,0
 .00000652,0.00001517,0.00002696,-0.00008126,0.00004481,-0.00003245,-0.
 00001596,0.00001316,0.00015105,-0.00010430,-0.00005803,0.00000394,0.08
 918368,-0.08255534,-0.12436193,-0.00524521,0.00625934,0.00494644,0.020
 25434,-0.01827060,-0.01817458,-0.09962072,0.08884233,0.13432887,-0.034
 69350,0.00045899,-0.01625278,-0.16629488,-0.03801331,-0.02592208,0.002
 21660,-0.00057288,0.00144940,0.00000005,0.00040073,0.00030332,-0.00012
 368,-0.00006378,-0.00001875,0.00002018,-0.00001534,-0.00005184,0.00000
 778,-0.00005841,0.00000428,0.00039139,0.00000975,-0.00061130,-0.001782
 21,-0.00111162,-0.00030055,0.00304901,0.00209999,0.00008792,-0.0086997
 9,-0.00570186,-0.00475464,0.00056199,-0.00032320,-0.00000176,0.0002227
 3,0.00157236,-0.00019211,0.00042945,0.00086216,-0.00014895,0.46531264,
 0.01480841,0.00441512,0.00681638,-0.02825784,-0.08955783,-0.00533173,0
 .00030237,0.00027928,-0.00035651,-0.00062735,0.00043432,0.00038044,0.0
 0020046,-0.00011814,-0.00006733,0.00012610,-0.00005135,-0.00015437,0.0
 0010791,-0.00005266,0.00006496,0.00035053,0.00136862,-0.00284192,-0.00
 215722,-0.00193044,0.00281505,0.00458912,0.00084677,0.00124457,-0.0344
 0340,-0.01084761,-0.00733872,-0.00108178,-0.00654100,0.00092273,0.0000
 9455,0.00134273,-0.00032779,-0.00005480,0.00160903,-0.00035289,-0.0162
 4370,0.58501923,-0.01968002,0.00204034,0.00376184,-0.02779540,-0.00870
 996,-0.07634497,0.00134181,-0.00064176,-0.00098104,-0.00025307,-0.0007
 8051,-0.00052972,0.00034549,0.00020158,0.00004504,0.00000648,0.0000362
 0,0.00004698,0.00007246,0.00010489,0.00003278,-0.00101173,-0.00031146,
 0.00085585,0.00017167,0.00065584,0.00059055,-0.00020401,0.00043617,0.0
 0087939,0.00154038,0.00250408,0.00839293,0.00018806,0.00150016,0.00064
 207,0.00038081,-0.00064322,0.00042635,-0.00021362,0.00098697,-0.000315
 24,-0.01895547,-0.01819852,0.52766107,0.00062064,-0.00137120,0.0007791
 0,-0.00433111,-0.02994868,0.00598262,-0.00017330,0.00048877,-0.0002650
 9,-0.00008541,0.00002860,0.00001689,0.00003718,-0.00002412,-0.00001372
 ,0.00001775,-0.00000605,-0.00001862,0.00000366,-0.00000010,0.00000917,
 0.00005576,0.00029712,-0.00041920,-0.00033936,-0.00030084,0.00043140,0
 .00074476,0.00017795,0.00012230,-0.00577449,-0.00041915,-0.00212388,-0
 .00004646,-0.00187428,0.00010211,0.00005897,0.00037691,0.00001353,0.00
 013130,-0.00001292,-0.00020210,-0.05319318,-0.03698971,0.00656448,0.05
 867086,0.00164613,0.00076819,0.00028569,-0.00084026,-0.00715680,0.0008
 6261,-0.00037330,0.00041507,-0.00015825,0.00001661,-0.00004983,-0.0000
 6040,0.00001259,-0.00000406,-0.00000089,0.00000417,-0.00000214,0.00000
 269,-0.00001503,0.00001649,0.00000223,-0.00006907,0.00011356,-0.000025
 79,0.00006730,0.00003334,0.00010176,-0.00009061,-0.00002715,-0.0000448
 4,-0.00222914,0.00068578,-0.00065385,0.00003617,-0.00046390,0.00017658
 ,0.00020522,0.00018318,-0.00001698,0.00015347,0.00039817,0.00009965,-0
 .03934122,-0.30593531,0.04562838,0.04394319,0.33057430,0.00002596,-0.0
 0080079,-0.00032055,-0.00067757,-0.00937746,-0.00007204,-0.00005997,0.
 00013729,0.00019509,-0.00001748,0.00007644,0.00005781,-0.00000289,-0.0
 0001548,-0.00000879,0.00000339,-0.00000647,-0.00001142,0.00000049,-0.0
 0001007,0.00000177,0.00005084,0.00006273,-0.00017844,-0.00014606,-0.00
 013797,0.00009959,0.00028985,0.00008559,0.00007155,-0.00190711,-0.0000
 7518,0.00016849,-0.00021156,-0.00044848,0.00060579,-0.00007394,-0.0003
 7614,0.00038002,-0.00003246,0.00049814,0.00006537,0.00711201,0.0464710
 8,-0.05583560,-0.00564500,-0.05006185,0.05555448,-0.00081492,-0.002312
 87,-0.00103529,-0.02617256,0.01659268,0.01325366,0.00000627,0.00006272
 ,0.00016217,0.00032119,-0.00010761,-0.00013736,-0.00010275,0.00002536,
 0.00001349,-0.00005281,0.00000994,0.00005736,-0.00006180,0.00002093,-0
 .00002581,-0.00013896,-0.00049908,0.00103537,0.00079375,0.00067381,-0.
 00106999,-0.00144126,-0.00033897,-0.00061204,0.00191231,0.00087084,-0.
 00067790,0.00032960,0.00012848,-0.00045620,-0.00002167,0.00001782,-0.0
 0000666,0.00007083,-0.00121636,-0.00014299,-0.16067895,0.09358214,0.09
 555996,0.00384833,-0.00291671,-0.00369868,0.17862003,-0.00081608,0.000
 44507,-0.00031881,-0.00507241,0.00488328,0.00632347,0.00012485,-0.0000
 0990,-0.00058819,0.00000706,0.00001657,0.00002395,-0.00000390,-0.00001
 125,-0.00001325,-0.00000682,-0.00000137,0.00000132,-0.00000066,-0.0000
 0763,-0.00000620,0.00006250,0.00001877,-0.00002169,0.00004965,-0.00004
 958,-0.00006729,-0.00005049,0.00010094,0.00007376,0.00011819,0.0004375
 2,0.00011725,0.00011457,0.00014137,0.00005621,-0.00010366,0.00000092,-
 0.00000731,-0.00005548,-0.00000086,-0.00026076,0.09114269,-0.12272790,
 -0.07290063,0.02098416,-0.01510939,-0.01713814,-0.10162942,0.12889316,
 -0.00030992,0.00000613,-0.00013073,-0.00956000,0.00483537,0.00490482,0
 .00010467,0.00010101,0.00002864,0.00008905,-0.00003421,-0.00004201,-0.
 00004826,0.00001293,0.00000642,-0.00001675,0.00000269,0.00001557,-0.00
 001616,0.00000983,-0.00000599,0.00003370,-0.00011275,0.00027272,0.0002
 4157,0.00020863,-0.00040906,-0.00066129,-0.00019074,-0.00010068,0.0005
 6291,0.00038221,-0.00032870,-0.00005221,0.00025204,-0.00000170,0.00013
 393,-0.00008607,-0.00012103,0.00023704,-0.00005217,0.00016796,0.092401
 82,-0.07244404,-0.11520257,-0.00528432,0.00367882,0.00290331,-0.099854
 70,0.08113770,0.12475900,-0.00150138,-0.00126125,0.00071738,-0.0105055
 2,0.00584515,-0.03258323,0.00012073,0.00008440,-0.00000916,0.00015279,
 -0.00045448,-0.00037043,0.00003291,0.00013696,0.00001955,-0.00005904,0
 .00002004,0.00007182,-0.00001259,0.00007765,0.00000689,-0.00041956,-0.
 00044519,0.00119861,0.00087625,0.00090145,-0.00067814,-0.00169527,-0.0
 0043488,-0.00012118,0.00106673,0.00150661,0.00114106,0.00001188,0.0003
 9072,0.00038667,0.00003907,-0.00085302,0.00051377,0.00001261,0.0000420
 7,0.00009789,-0.04674563,0.00565420,-0.03805829,-0.00024588,-0.0002095
 0,0.00499019,0.00358337,-0.00486476,0.02199892,0.05528855,-0.00079169,
 0.00013644,-0.00016486,0.00058897,0.00151636,-0.00852010,-0.00024931,0
 .00017636,0.00041587,0.00000457,0.00003676,0.00003943,0.00000859,-0.00
 001015,-0.00001274,-0.00000624,-0.00000236,0.00000166,-0.00000192,-0.0
 0001184,-0.00000549,-0.00000060,-0.00002950,0.00000381,0.00003019,-0.0
 0001115,0.00002761,0.00005693,0.00009236,-0.00005334,0.00022542,0.0003
 0503,-0.00029156,0.00011500,0.00006782,0.00014510,-0.00030719,-0.00007
 270,0.00023251,-0.00012185,0.00003420,-0.00009691,0.00489865,-0.057552
 87,0.04809146,0.00465035,-0.00443950,0.03111675,-0.00296371,0.00298030
 ,-0.01770736,-0.00613617,0.05678444,-0.00040485,-0.00124841,0.00092679
 ,-0.00362783,0.00245872,-0.00736657,0.00008442,-0.00016004,-0.00026081
 ,0.00012238,-0.00009083,-0.00010867,-0.00001500,0.00002287,-0.00000311
 ,-0.00003135,-0.00000140,0.00002282,-0.00002029,0.00002037,-0.00000166
 ,-0.00014132,-0.00019596,0.00047772,0.00030355,0.00025439,-0.00044664,
 -0.00056245,-0.00003340,0.00013825,0.00036740,0.00029459,0.00044335,-0
 .00002764,-0.00000308,0.00041508,-0.00020198,-0.00062792,0.00029357,0.
 00003984,0.00006028,-0.00008318,-0.03414853,0.04869862,-0.29412571,-0.
 00004966,0.00018444,-0.00367644,-0.00236437,0.00358861,-0.01671597,0.0
 4067768,-0.05322184,0.32007117\\0.00000353,-0.00000005,-0.00000098,0.0
 0000064,-0.00000052,-0.00000085,-0.00000112,0.00000043,0.00000181,0.00
 000137,0.00000168,-0.00000109,-0.00000021,0.00000042,0.00000093,-0.000
 00026,0.00000008,-0.00000035,0.00000041,0.00000024,0.,0.00000583,0.000
 00722,-0.00001674,-0.00000115,-0.00001038,0.00001492,-0.00000601,0.000
 00009,0.00000215,0.00000131,0.00000129,0.00000321,-0.00000305,0.000000
 26,-0.00000283,-0.00000023,0.00000022,0.00000033,-0.00000103,-0.000000
 56,0.00000013,0.00000026,-0.00000005,-0.00000139,0.,-0.00000011,0.0000
 0060,0.00000011,0.00000014,0.00000014,-0.00000039,-0.00000040,0.000000
 02\\\@


     ON THE SURVIVAL OF THE FITTEST -
 "STRONG REPRESENTATIVES FROM EACH PAST ERA THRIVE TODAY,
 SUCH AS PROGRAMMING IN THE THIRTY YEAR OLD LANGUAGE KNOWN
 AS FORTRAN, AND EVEN IN THE ANCIENT SCRIPT KNOWN AS DIRECT
 MACHINE CODE. SOME PEOPLE MIGHT LOOK ON SUCH RELICS AS LIVING
 FOSSILS; OTHERS WOULD POINT OUT THAT EVEN A VERY OLD SPECIES
 MIGHT STILL BE FILLING A PARTICULAR ECOLOGICAL NICHE."
     -- ALAN KAY, SCI.AM. SEPTEMBER 1984
 Job cpu time:       3 days  1 hours 58 minutes 41.1 seconds.
 Elapsed time:       0 days  1 hours 54 minutes 40.1 seconds.
 File lengths (MBytes):  RWF= 108510 Int=      0 D2E=      0 Chk=     21 Scr=      1
 Normal termination of Gaussian 16 at Tue Jun 11 07:36:34 2019.
