 Entering Gaussian System, Link 0=g16
 Initial command:
 /ichec/packages/gaussian/16b01/l1.exe "/localscratch/350163/Gau-10897.inp" -scrdir="/localscratch/350163/"
 Entering Link 1 = /ichec/packages/gaussian/16b01/l1.exe PID=     12069.
  
 Copyright (c) 1988-2017, Gaussian, Inc.  All Rights Reserved.
  
 This is part of the Gaussian(R) 16 program.  It is based on
 the Gaussian(R) 09 system (copyright 2009, Gaussian, Inc.),
 the Gaussian(R) 03 system (copyright 2003, Gaussian, Inc.),
 the Gaussian(R) 98 system (copyright 1998, Gaussian, Inc.),
 the Gaussian(R) 94 system (copyright 1995, Gaussian, Inc.),
 the Gaussian 92(TM) system (copyright 1992, Gaussian, Inc.),
 the Gaussian 90(TM) system (copyright 1990, Gaussian, Inc.),
 the Gaussian 88(TM) system (copyright 1988, Gaussian, Inc.),
 the Gaussian 86(TM) system (copyright 1986, Carnegie Mellon
 University), and the Gaussian 82(TM) system (copyright 1983,
 Carnegie Mellon University). Gaussian is a federally registered
 trademark of Gaussian, Inc.
  
 This software contains proprietary and confidential information,
 including trade secrets, belonging to Gaussian, Inc.
  
 This software is provided under written license and may be
 used, copied, transmitted, or stored only in accord with that
 written license.
  
 The following legend is applicable only to US Government
 contracts under FAR:
  
                    RESTRICTED RIGHTS LEGEND
  
 Use, reproduction and disclosure by the US Government is
 subject to restrictions as set forth in subparagraphs (a)
 and (c) of the Commercial Computer Software - Restricted
 Rights clause in FAR 52.227-19.
  
 Gaussian, Inc.
 340 Quinnipiac St., Bldg. 40, Wallingford CT 06492
  
  
 ---------------------------------------------------------------
 Warning -- This program may not be used in any manner that
 competes with the business of Gaussian, Inc. or will provide
 assistance to any competitor of Gaussian, Inc.  The licensee
 of this program is prohibited from giving any competitor of
 Gaussian, Inc. access to this program.  By using this program,
 the user acknowledges that Gaussian, Inc. is engaged in the
 business of creating and licensing software in the field of
 computational chemistry and represents and warrants to the
 licensee that it is not a competitor of Gaussian, Inc. and that
 it will not use this program in any manner prohibited above.
 ---------------------------------------------------------------
  

 Cite this work as:
 Gaussian 16, Revision B.01,
 M. J. Frisch, G. W. Trucks, H. B. Schlegel, G. E. Scuseria, 
 M. A. Robb, J. R. Cheeseman, G. Scalmani, V. Barone, 
 G. A. Petersson, H. Nakatsuji, X. Li, M. Caricato, A. V. Marenich, 
 J. Bloino, B. G. Janesko, R. Gomperts, B. Mennucci, H. P. Hratchian, 
 J. V. Ortiz, A. F. Izmaylov, J. L. Sonnenberg, D. Williams-Young, 
 F. Ding, F. Lipparini, F. Egidi, J. Goings, B. Peng, A. Petrone, 
 T. Henderson, D. Ranasinghe, V. G. Zakrzewski, J. Gao, N. Rega, 
 G. Zheng, W. Liang, M. Hada, M. Ehara, K. Toyota, R. Fukuda, 
 J. Hasegawa, M. Ishida, T. Nakajima, Y. Honda, O. Kitao, H. Nakai, 
 T. Vreven, K. Throssell, J. A. Montgomery, Jr., J. E. Peralta, 
 F. Ogliaro, M. J. Bearpark, J. J. Heyd, E. N. Brothers, K. N. Kudin, 
 V. N. Staroverov, T. A. Keith, R. Kobayashi, J. Normand, 
 K. Raghavachari, A. P. Rendell, J. C. Burant, S. S. Iyengar, 
 J. Tomasi, M. Cossi, J. M. Millam, M. Klene, C. Adamo, R. Cammi, 
 J. W. Ochterski, R. L. Martin, K. Morokuma, O. Farkas, 
 J. B. Foresman, and D. J. Fox, Gaussian, Inc., Wallingford CT, 2016.
 
 ******************************************
 Gaussian 16:  ES64L-G16RevB.01 20-Dec-2017
                17-Jun-2019 
 ******************************************
 %mem=80GB
 %nproc=40
 Will use up to   40 processors via shared memory.
 ----------------------------------------------------------------------
 # opt=(calcfc,ts,noeigentest,maxcyc=500,modredundant) uB2PLYPD3/cc-pvt
 z scf=maxcyc=500 nosymm
 ----------------------------------------------------------------------
 1/5=1,6=500,10=4,11=1,18=120,38=1/1,3;
 2/9=110,12=2,15=1,17=6,18=5,40=1/2;
 3/5=16,6=1,11=2,25=1,30=1,71=2,74=-60,116=2,140=1/1,2,3;
 4//1;
 5/5=2,7=500,38=5/2;
 8/6=3,8=1,10=1,19=11,30=-1/1;
 9/15=3,16=-3/6;
 11/6=1,8=1,15=11,17=12,24=-1,27=1,28=-2,29=300,31=1,32=6,42=3/1,2,10;
 10/6=2,21=1,31=1/2;
 8/6=4,8=1,10=1,19=11,30=-1/11,4;
 10/5=1,20=4,31=1/2;
 11/12=2,14=11,16=1,17=2,28=-2,31=1,42=3,76=2/2,10,12;
 6/7=2,8=2,9=2,10=2/1;
 7/10=1,12=2,25=1,30=1,44=2/1,2,3,16;
 1/5=1,6=500,10=4,11=1,18=20/3(2);
 2/9=110,15=1/2;
 99//99;
 2/9=110,15=1/2;
 3/5=16,6=1,11=2,25=1,30=1,71=1,74=-60,116=2/1,2,3;
 4/5=5,16=3,69=1/1;
 5/5=2,7=500,38=5/2;
 8/6=4,10=1/1;
 9/15=2,16=-3/6;
 10/5=1,31=1/2;
 7/12=2,30=1/1,2,3,16;
 1/5=1,6=500,11=1,18=20/3(-8);
 2/9=110,15=1/2;
 6/7=2,8=2,9=2,10=2/1;
 99/9=10/99;
 -------------------
 Title Card Required
 -------------------
 Symbolic Z-matrix:
 Charge =  0 Multiplicity = 2
 C                     0.95028   1.40124  -0.12748 
 H                     0.93555   2.08366   0.71555 
 H                     1.29141   1.85513  -1.05265 
 C                    -1.92629  -1.16078  -0.2298 
 H                    -1.01156  -1.39814  -0.77026 
 H                    -2.13303  -1.93302   0.50781 
 H                    -2.75824  -1.06967  -0.92592 
 O                    -1.7768    0.04122   0.51875 
 O                    -1.55418   1.0881   -0.37722 
 H                    -0.34178   1.25515  -0.32891 
 C                     1.41474   0.05544   0.14653 
 C                     1.39235  -0.44834   1.39503 
 H                     1.69747  -1.46469   1.59751 
 H                     1.06922   0.15217   2.23249 
 C                     1.84265  -0.77638  -1.03045 
 H                     2.73122  -0.35022  -1.4976 
 H                     2.06357  -1.80097  -0.74087 
 H                     1.06166  -0.79107  -1.79241 
 
 Add virtual bond connecting atoms H10        and O9         Dist= 2.31D+00.
 Add virtual bond connecting atoms H10        and C1         Dist= 2.49D+00.
 The following ModRedundant input section has been read:
 D    *          1       9    *    R                                           
 D      11       1       9       8 S  36 10.000                                
 

 GradGradGradGradGradGradGradGradGradGradGradGradGradGradGradGradGradGrad
 Berny optimization.
 Initialization pass.
                           ----------------------------
                           !    Initial Parameters    !
                           ! (Angstroms and Degrees)  !
 --------------------------                            --------------------------
 ! Name  Definition              Value          Derivative Info.                !
 --------------------------------------------------------------------------------
 ! R1    R(1,2)                  1.0847         calculate D2E/DX2 analytically  !
 ! R2    R(1,3)                  1.0855         calculate D2E/DX2 analytically  !
 ! R3    R(1,10)                 1.3158         calculate D2E/DX2 analytically  !
 ! R4    R(1,11)                 1.4498         calculate D2E/DX2 analytically  !
 ! R5    R(4,5)                  1.0887         calculate D2E/DX2 analytically  !
 ! R6    R(4,6)                  1.0877         calculate D2E/DX2 analytically  !
 ! R7    R(4,7)                  1.0886         calculate D2E/DX2 analytically  !
 ! R8    R(4,8)                  1.4239         calculate D2E/DX2 analytically  !
 ! R9    R(8,9)                  1.3958         calculate D2E/DX2 analytically  !
 ! R10   R(9,10)                 1.2248         calculate D2E/DX2 analytically  !
 ! R11   R(11,12)                1.3465         calculate D2E/DX2 analytically  !
 ! R12   R(11,15)                1.5034         calculate D2E/DX2 analytically  !
 ! R13   R(12,13)                1.0803         calculate D2E/DX2 analytically  !
 ! R14   R(12,14)                1.08           calculate D2E/DX2 analytically  !
 ! R15   R(15,16)                1.0906         calculate D2E/DX2 analytically  !
 ! R16   R(15,17)                1.0874         calculate D2E/DX2 analytically  !
 ! R17   R(15,18)                1.0912         calculate D2E/DX2 analytically  !
 ! A1    A(2,1,3)              113.8036         calculate D2E/DX2 analytically  !
 ! A2    A(2,1,10)             100.1074         calculate D2E/DX2 analytically  !
 ! A3    A(2,1,11)             116.1969         calculate D2E/DX2 analytically  !
 ! A4    A(3,1,10)             102.9757         calculate D2E/DX2 analytically  !
 ! A5    A(3,1,11)             116.6496         calculate D2E/DX2 analytically  !
 ! A6    A(10,1,11)            103.9127         calculate D2E/DX2 analytically  !
 ! A7    A(5,4,6)              109.9718         calculate D2E/DX2 analytically  !
 ! A8    A(5,4,7)              110.0559         calculate D2E/DX2 analytically  !
 ! A9    A(5,4,8)              110.9052         calculate D2E/DX2 analytically  !
 ! A10   A(6,4,7)              110.3534         calculate D2E/DX2 analytically  !
 ! A11   A(6,4,8)              105.2347         calculate D2E/DX2 analytically  !
 ! A12   A(7,4,8)              110.2278         calculate D2E/DX2 analytically  !
 ! A13   A(4,8,9)              108.2054         calculate D2E/DX2 analytically  !
 ! A14   A(8,9,10)             103.5833         calculate D2E/DX2 analytically  !
 ! A15   A(1,11,12)            121.145          calculate D2E/DX2 analytically  !
 ! A16   A(1,11,15)            117.1816         calculate D2E/DX2 analytically  !
 ! A17   A(12,11,15)           121.5751         calculate D2E/DX2 analytically  !
 ! A18   A(11,12,13)           121.4047         calculate D2E/DX2 analytically  !
 ! A19   A(11,12,14)           121.0608         calculate D2E/DX2 analytically  !
 ! A20   A(13,12,14)           117.5344         calculate D2E/DX2 analytically  !
 ! A21   A(11,15,16)           110.5506         calculate D2E/DX2 analytically  !
 ! A22   A(11,15,17)           111.7564         calculate D2E/DX2 analytically  !
 ! A23   A(11,15,18)           110.5105         calculate D2E/DX2 analytically  !
 ! A24   A(16,15,17)           108.4655         calculate D2E/DX2 analytically  !
 ! A25   A(16,15,18)           106.8158         calculate D2E/DX2 analytically  !
 ! A26   A(17,15,18)           108.5827         calculate D2E/DX2 analytically  !
 ! A27   L(1,10,9,5,-1)        179.5003         calculate D2E/DX2 analytically  !
 ! A28   L(1,10,9,5,-2)        172.8115         calculate D2E/DX2 analytically  !
 ! D1    D(11,1,9,8)            32.5633         Scan                            !
 ! D2    D(2,1,11,12)           21.6459         calculate D2E/DX2 analytically  !
 ! D3    D(2,1,11,15)         -161.9047         calculate D2E/DX2 analytically  !
 ! D4    D(3,1,11,12)          160.2514         calculate D2E/DX2 analytically  !
 ! D5    D(3,1,11,15)          -23.2992         calculate D2E/DX2 analytically  !
 ! D6    D(10,1,11,12)         -87.2208         calculate D2E/DX2 analytically  !
 ! D7    D(10,1,11,15)          89.2287         calculate D2E/DX2 analytically  !
 ! D8    D(5,4,8,9)             63.1617         calculate D2E/DX2 analytically  !
 ! D9    D(6,4,8,9)           -177.9588         calculate D2E/DX2 analytically  !
 ! D10   D(7,4,8,9)            -58.9775         calculate D2E/DX2 analytically  !
 ! D11   D(4,8,9,10)          -100.3832         calculate D2E/DX2 analytically  !
 ! D12   D(1,11,12,13)         177.3379         calculate D2E/DX2 analytically  !
 ! D13   D(1,11,12,14)          -2.7723         calculate D2E/DX2 analytically  !
 ! D14   D(15,11,12,13)          1.0455         calculate D2E/DX2 analytically  !
 ! D15   D(15,11,12,14)       -179.0647         calculate D2E/DX2 analytically  !
 ! D16   D(1,11,15,16)          65.6811         calculate D2E/DX2 analytically  !
 ! D17   D(1,11,15,17)        -173.4003         calculate D2E/DX2 analytically  !
 ! D18   D(1,11,15,18)         -52.3605         calculate D2E/DX2 analytically  !
 ! D19   D(12,11,15,16)       -117.8857         calculate D2E/DX2 analytically  !
 ! D20   D(12,11,15,17)          3.0328         calculate D2E/DX2 analytically  !
 ! D21   D(12,11,15,18)        124.0726         calculate D2E/DX2 analytically  !
 --------------------------------------------------------------------------------
 Trust Radius=3.00D-01 FncErr=1.00D-07 GrdErr=1.00D-07 EigMax=2.50D+02 EigMin=1.00D-04
 Number of optimizations in scan=  37
 Number of steps in this run=    108 maximum allowed number of steps=    108.
 Search for a saddle point of order  1.
 GradGradGradGradGradGradGradGradGradGradGradGradGradGradGradGradGradGrad

                          Input orientation:                          
 ---------------------------------------------------------------------
 Center     Atomic      Atomic             Coordinates (Angstroms)
 Number     Number       Type             X           Y           Z
 ---------------------------------------------------------------------
      1          6           0        0.950282    1.401242   -0.127476
      2          1           0        0.935552    2.083661    0.715547
      3          1           0        1.291414    1.855127   -1.052648
      4          6           0       -1.926294   -1.160781   -0.229803
      5          1           0       -1.011560   -1.398139   -0.770262
      6          1           0       -2.133028   -1.933016    0.507809
      7          1           0       -2.758236   -1.069666   -0.925918
      8          8           0       -1.776804    0.041222    0.518753
      9          8           0       -1.554177    1.088097   -0.377220
     10          1           0       -0.341783    1.255150   -0.328910
     11          6           0        1.414738    0.055441    0.146526
     12          6           0        1.392347   -0.448339    1.395034
     13          1           0        1.697471   -1.464690    1.597513
     14          1           0        1.069219    0.152165    2.232493
     15          6           0        1.842653   -0.776378   -1.030452
     16          1           0        2.731223   -0.350218   -1.497601
     17          1           0        2.063568   -1.800972   -0.740867
     18          1           0        1.061656   -0.791065   -1.792407
 ---------------------------------------------------------------------
                    Distance matrix (angstroms):
                    1          2          3          4          5
     1  C    0.000000
     2  H    1.084712   0.000000
     3  H    1.085507   1.818070   0.000000
     4  C    3.853456   4.428347   4.486248   0.000000
     5  H    3.478294   4.256971   3.995894   1.088657   0.000000
     6  H    4.585593   5.058956   5.339649   1.087730   1.782484
     7  H    4.527251   5.126592   4.997013   1.088580   1.784097
     8  O    3.115167   3.401053   3.895320   1.423901   2.078201
     9  O    2.536286   2.895520   3.023562   2.284219   2.574934
    10  H    1.315808   1.846322   1.884437   2.890886   2.771883
    11  C    1.449820   2.160343   2.166125   3.575376   2.973267
    12  C    2.436064   2.661088   3.362631   3.763117   3.371853
    13  H    3.427455   3.734860   4.267250   4.069781   3.598560
    14  H    2.672788   2.459607   3.706967   4.093877   3.968579
    15  C    2.520659   3.471479   2.688713   3.872178   2.932715
    16  H    2.848966   3.747829   2.671063   4.894567   3.954186
    17  H    3.445262   4.299295   3.749732   4.073086   3.101540
    18  H    2.755106   3.817039   2.757239   3.392089   2.389884
                    6          7          8          9         10
     6  H    0.000000
     7  H    1.786570   0.000000
     8  O    2.006148   2.069868   0.000000
     9  O    3.200854   2.531160   1.395807   0.000000
    10  H    3.751408   3.405941   2.061902   1.224802   0.000000
    11  C    4.083030   4.453057   3.213206   3.186714   2.179612
    12  C    3.926793   4.795853   3.324313   3.766102   2.980111
    13  H    4.009926   5.135861   3.937268   4.581431   3.907325
    14  H    4.192481   5.110562   3.324013   3.816907   3.125426
    15  C    4.417024   4.611412   4.021066   3.929559   3.064478
    16  H    5.494348   5.565841   4.953909   4.657108   3.658744
    17  H    4.380416   4.880456   4.441709   4.644032   3.910921
    18  H    4.098909   3.926830   3.753800   3.518037   2.880705
                   11         12         13         14         15
    11  C    0.000000
    12  C    1.346502   0.000000
    13  H    2.120401   1.080309   0.000000
    14  H    2.116600   1.079979   1.847193   0.000000
    15  C    1.503433   2.488648   2.720487   3.479541   0.000000
    16  H    2.144958   3.188974   3.448249   4.114395   1.090595
    17  H    2.157479   2.615765   2.390635   3.693825   1.087408
    18  H    2.144924   3.222825   3.514198   4.133952   1.091214
                   16         17         18
    16  H    0.000000
    17  H    1.767229   0.000000
    18  H    1.751774   1.769033   0.000000
 Symmetry turned off by external request.
 Stoichiometry    C5H11O2(2)
 Framework group  C1[X(C5H11O2)]
 Deg. of freedom    48
 Full point group                 C1      NOp   1
 Rotational constants (GHZ):           3.3355870           1.5495268           1.4189660
 Standard basis: CC-pVTZ (5D, 7F)
   364 basis functions,   551 primitive gaussians,   410 cartesian basis functions
    29 alpha electrons       28 beta electrons
       nuclear repulsion energy       315.4348289966 Hartrees.
 NAtoms=   18 NActive=   18 NUniq=   18 SFac= 1.00D+00 NAtFMM=   60 NAOKFM=F Big=F
 Integral buffers will be    131072 words long.
 Raffenetti 2 integral format.
 Two-electron integral symmetry is turned off.
 Nuclear repulsion after empirical dispersion term =      315.4244648265 Hartrees.
 One-electron integrals computed using PRISM.
 NBasis=   364 RedAO= T EigKep=  3.63D-04  NBF=   364
 NBsUse=   364 1.00D-06 EigRej= -1.00D+00 NBFU=   364
 ExpMin= 1.03D-01 ExpMax= 1.53D+04 ExpMxC= 5.22D+02 IAcc=3 IRadAn=         5 AccDes= 0.00D+00
 Harris functional with IExCor=  419 and IRadAn=       5 diagonalized for initial guess.
 HarFok:  IExCor=  419 AccDes= 0.00D+00 IRadAn=         5 IDoV= 1 UseB2=F ITyADJ=14
 ICtDFT=  3500011 ScaDFX=  1.000000  1.000000  1.000000  1.000000
 FoFCou: FMM=F IPFlag=           0 FMFlag=      100000 FMFlg1=           0
         NFxFlg=           0 DoJE=T BraDBF=F KetDBF=T FulRan=T
         wScrn=  0.000000 ICntrl=       500 IOpCl=  0 I1Cent=   200000004 NGrid=           0
         NMat0=    1 NMatS0=      1 NMatT0=    0 NMatD0=    1 NMtDS0=    0 NMtDT0=    0
 Symmetry not used in FoFCou.
 Initial guess <Sx>= 0.0000 <Sy>= 0.0000 <Sz>= 0.5000 <S**2>= 0.7500 S= 0.5000
 Requested convergence on RMS density matrix=1.00D-08 within 500 cycles.
 Requested convergence on MAX density matrix=1.00D-06.
 Requested convergence on             energy=1.00D-06.
 No special actions if energy rises.
 Integral accuracy reduced to 1.0D-05 until final iterations.
 Initial convergence to 1.0D-05 achieved.  Increase integral accuracy.
 SCF Done:  E(UB2PLYPD3) =  -346.817376711     A.U. after   21 cycles
            NFock= 21  Conv=0.77D-08     -V/T= 2.0043
 <Sx>= 0.0000 <Sy>= 0.0000 <Sz>= 0.5000 <S**2>= 0.8133 S= 0.5311
 <L.S>=  0.00000000000    
 Annihilation of the first spin contaminant:
 S**2 before annihilation     0.8133,   after     0.7518
 DoSCS=T DFT=T ScalE2(SS,OS)=  0.270000  0.270000
 ExpMin= 1.03D-01 ExpMax= 1.53D+04 ExpMxC= 5.22D+02 IAcc=3 IRadAn=         5 AccDes= 0.00D+00
 HarFok:  IExCor=  205 AccDes= 0.00D+00 IRadAn=         5 IDoV=-2 UseB2=F ITyADJ=14
 ICtDFT= 12500011 ScaDFX=  1.000000  1.000000  1.000000  1.000000
 Range of M.O.s used for correlation:     8   364
 NBasis=   364 NAE=    29 NBE=    28 NFC=     7 NFV=     0
 NROrb=    357 NOA=    22 NOB=    21 NVA=   335 NVB=   336

 **** Warning!!: The largest alpha MO coefficient is  0.12373824D+02


 **** Warning!!: The largest beta MO coefficient is  0.12371977D+02

 DoSCS=T DFT=T ScalE2(SS,OS)=  0.270000  0.270000
 Disk-based method using ON**2 memory for 22 occupieds at a time.
 Permanent disk used for amplitudes=   135386230 words.
 Estimated scratch disk usage=  2671361932 words.
 Actual    scratch disk usage=  2583780236 words.
 JobTyp=2 Pass  1:  I=   8 to  29 NPSUse= 40 ParTrn=T ParDer=T DoDerP=T.
 (rs|ai) integrals will be sorted in core.
 Actual    scratch disk usage=  2583780236 words.
 JobTyp=3 Pass  1:  I=   8 to  28 NPSUse= 40 ParTrn=T ParDer=T DoDerP=T.
 (rs|ai) integrals will be sorted in core.
 Spin components of T(2) and E(2):
     alpha-alpha T2 =       0.7587162682D-01 E2=     -0.5378636865D-01
     alpha-beta  T2 =       0.4633576965D+00 E2=     -0.3348612008D+00
     beta-beta   T2 =       0.8512754990D-01 E2=     -0.5346431922D-01
 (S**2,0)=  0.81325D+00           (S**2,1)=  0.75654D+00
 Scaling Projection term by:   0.270000
 E(PUHF)=      -0.34682739069D+03        E(PMP2)=      -0.34726100099D+03
 E2(B2PLYPD3) =    -0.4421118887D+00 E(B2PLYPD3) =    -0.34725948859969D+03
 G2DrvN: will do    19 centers at a time, making    1 passes.
 Calling FoFCou, ICntrl=  3107 FMM=F I1Cent=   0 AccDes= 0.00D+00.
 End of G2Drv F.D. properties file   721 does not exist.
 End of G2Drv F.D. properties file   722 does not exist.
 End of G2Drv F.D. properties file   788 does not exist.
          IDoAtm=111111111111111111
          Differentiating once with respect to electric field.
                with respect to dipole field.
          Differentiating once with respect to nuclear coordinates.
 Keep R1 and R2 ints in memory in canonical form, NReq=4459303714.
          There are    57 degrees of freedom in the 1st order CPHF.  IDoFFX=6 NUNeed=    57.
     54 vectors produced by pass  0 Test12= 3.35D-14 1.75D-09 XBig12= 1.06D+02 7.04D+00.
 AX will form    54 AO Fock derivatives at one time.
     54 vectors produced by pass  1 Test12= 3.35D-14 1.75D-09 XBig12= 1.20D+01 5.27D-01.
     54 vectors produced by pass  2 Test12= 3.35D-14 1.75D-09 XBig12= 9.83D-01 1.77D-01.
     54 vectors produced by pass  3 Test12= 3.35D-14 1.75D-09 XBig12= 1.63D-02 1.56D-02.
     54 vectors produced by pass  4 Test12= 3.35D-14 1.75D-09 XBig12= 2.12D-04 1.57D-03.
     54 vectors produced by pass  5 Test12= 3.35D-14 1.75D-09 XBig12= 3.03D-06 1.55D-04.
     53 vectors produced by pass  6 Test12= 3.35D-14 1.75D-09 XBig12= 2.41D-08 1.67D-05.
     24 vectors produced by pass  7 Test12= 3.35D-14 1.75D-09 XBig12= 1.49D-10 1.15D-06.
      3 vectors produced by pass  8 Test12= 3.35D-14 1.75D-09 XBig12= 1.12D-12 7.05D-08.
      2 vectors produced by pass  9 Test12= 3.35D-14 1.75D-09 XBig12= 9.94D-15 8.11D-09.
 InvSVY:  IOpt=1 It=  1 EMax= 1.24D-14
 Solved reduced A of dimension   406 with    57 vectors.
 End of Minotr F.D. properties file   721 does not exist.
 End of Minotr F.D. properties file   722 does not exist.
 End of Minotr F.D. properties file   788 does not exist.
 MDV= 10737418240.
 DoSCS=T DFT=T ScalE2(SS,OS)=  0.270000  0.270000
 Form MO integral derivatives with frozen-active canonical formalism.
 Discarding MO integrals.
 Reordered first order wavefunction length =    545006183
 In DefCFB: NBatch=  1 ICI= 29 ICA=336 LFMax= 68
            Large arrays: LIAPS= 11415666080 LIARS=  1957569600 words.
 In DefCFB: NBatch=  1 ICI= 29 ICA=336 LFMax= 68
            Large arrays: LIAPS= 11415666080 LIARS=  1957569600 words.
 Semi-Direct transformation.
 ModeAB=           4 MOrb=            29 LenV=   10733530725
 LASXX=    664627481 LTotXX=   664627481 LenRXX=  1338891981
 LTotAB=   674264500 MaxLAS=   837323032 LenRXY=           0
 NonZer=  2003519462 LenScr=  3017065472 LnRSAI=   837323032
 LnScr1=  1260910592 LExtra=           0 Total=   6454191077
 MaxDsk=          -1 SrtSym=           T ITran=            4
 JobTyp=1 Pass  1:  I=   1 to  29.
 (rs|ai) integrals will be sorted in core.
 ModeAB=           4 MOrb=            28 LenV=   10733530725
 LASXX=    642894399 LTotXX=   642894399 LenRXX=  1195226319
 LTotAB=   552331920 MaxLAS=   808449824 LenRXY=           0
 NonZer=  1838120718 LenScr=  2767993856 LnRSAI=   808449824
 LnScr1=  1217430528 LExtra=           0 Total=   5989100527
 MaxDsk=          -1 SrtSym=           T ITran=            4
 JobTyp=2 Pass  1:  I=   1 to  28.
 (rs|ai) integrals will be sorted in core.
 DoSCS=T DFT=T ScalE2(SS,OS)=  0.270000  0.270000
 Spin components of T(2) and E(2):
     alpha-alpha T2 =       0.7587162682D-01 E2=     -0.5378636865D-01
     alpha-beta  T2 =       0.4633576965D+00 E2=     -0.3348612008D+00
     beta-beta   T2 =       0.8512754990D-01 E2=     -0.5346431922D-01
 E2(B2PLYPD3) =    -0.4421118887D+00 E(B2PLYPD3) =    -0.34725948859969D+03
 (S**2,0)=  0.81325D+00           (S**2,1)=  0.75654D+00
 Scaling Projection term by:   0.270000
 E(PUHF)=      -0.34682739069D+03        E(PMP2)=      -0.34726100099D+03
          IDoAtm=111111111111111111
          Differentiating once with respect to electric field.
                with respect to dipole field.
          Differentiating once with respect to nuclear coordinates.
 Keep R1 and R2 ints in memory in canonical form, NReq=4459438754.
          There are     1 degrees of freedom in the 1st order CPHF.  IDoFFX=0 NUNeed=     1.
 LinEq1:  Iter=  0 NonCon=     1 RMS=9.38D-04 Max=5.40D-02 NDo=     1
 AX will form     1 AO Fock derivatives at one time.
 LinEq1:  Iter=  1 NonCon=     1 RMS=3.42D-04 Max=1.67D-02 NDo=     1
 LinEq1:  Iter=  2 NonCon=     1 RMS=2.32D-04 Max=1.00D-02 NDo=     1
 LinEq1:  Iter=  3 NonCon=     1 RMS=1.17D-04 Max=4.61D-03 NDo=     1
 LinEq1:  Iter=  4 NonCon=     1 RMS=7.68D-05 Max=4.24D-03 NDo=     1
 LinEq1:  Iter=  5 NonCon=     1 RMS=5.52D-05 Max=3.41D-03 NDo=     1
 LinEq1:  Iter=  6 NonCon=     1 RMS=2.92D-05 Max=8.49D-04 NDo=     1
 LinEq1:  Iter=  7 NonCon=     1 RMS=8.63D-06 Max=2.50D-04 NDo=     1
 LinEq1:  Iter=  8 NonCon=     1 RMS=5.76D-06 Max=3.91D-04 NDo=     1
 LinEq1:  Iter=  9 NonCon=     1 RMS=2.30D-06 Max=4.25D-05 NDo=     1
 LinEq1:  Iter= 10 NonCon=     1 RMS=1.05D-06 Max=2.28D-05 NDo=     1
 LinEq1:  Iter= 11 NonCon=     1 RMS=5.67D-07 Max=1.32D-05 NDo=     1
 LinEq1:  Iter= 12 NonCon=     1 RMS=2.42D-07 Max=3.62D-06 NDo=     1
 LinEq1:  Iter= 13 NonCon=     1 RMS=9.90D-08 Max=1.90D-06 NDo=     1
 LinEq1:  Iter= 14 NonCon=     1 RMS=3.96D-08 Max=7.64D-07 NDo=     1
 LinEq1:  Iter= 15 NonCon=     1 RMS=1.70D-08 Max=4.49D-07 NDo=     1
 LinEq1:  Iter= 16 NonCon=     1 RMS=6.82D-09 Max=1.22D-07 NDo=     1
 LinEq1:  Iter= 17 NonCon=     1 RMS=2.84D-09 Max=6.23D-08 NDo=     1
 LinEq1:  Iter= 18 NonCon=     1 RMS=8.41D-10 Max=2.34D-08 NDo=     1
 LinEq1:  Iter= 19 NonCon=     1 RMS=2.64D-10 Max=1.22D-08 NDo=     1
 LinEq1:  Iter= 20 NonCon=     1 RMS=9.82D-11 Max=5.49D-09 NDo=     1
 LinEq1:  Iter= 21 NonCon=     1 RMS=4.81D-11 Max=2.35D-09 NDo=     1
 LinEq1:  Iter= 22 NonCon=     0 RMS=2.06D-11 Max=6.37D-10 NDo=     1
 Linear equations converged to 1.000D-10 1.000D-09 after    22 iterations.
 End of Minotr F.D. properties file   721 does not exist.
 End of Minotr F.D. properties file   722 does not exist.
 End of Minotr F.D. properties file   788 does not exist.
 Symmetrizing basis deriv contribution to polar:
 IMax=3 JMax=2 DiffMx= 0.00D+00
 G2DrvN: will do    19 centers at a time, making    1 passes.
 Calling FoFCou, ICntrl=  3107 FMM=F I1Cent=   0 AccDes= 0.00D+00.
 End of G2Drv F.D. properties file   721 does not exist.
 End of G2Drv F.D. properties file   722 does not exist.
 End of G2Drv F.D. properties file   788 does not exist.
 DoSCS=T DFT=T ScalE2(SS,OS)=  0.270000  0.270000
 R2 and R3 integrals will be kept in memory, NReq=  7133702340.
 DD1Dir will call FoFMem   1 times, MxPair=      2408
 NAB=   812 NAA=   406 NBB=   378.
 Discarding MO integrals.

 **********************************************************************

            Population analysis using the SCF Density.

 **********************************************************************

 Alpha  occ. eigenvalues --  -19.78668 -19.78020 -10.65751 -10.63660 -10.62861
 Alpha  occ. eigenvalues --  -10.61777 -10.61738  -1.27492  -1.01113  -0.94533
 Alpha  occ. eigenvalues --   -0.81401  -0.80378  -0.77169  -0.62680  -0.59875
 Alpha  occ. eigenvalues --   -0.55753  -0.54543  -0.54054  -0.53447  -0.49993
 Alpha  occ. eigenvalues --   -0.49006  -0.45495  -0.44740  -0.43858  -0.42238
 Alpha  occ. eigenvalues --   -0.38783  -0.36067  -0.34217  -0.27614
 Alpha virt. eigenvalues --    0.06649   0.07346   0.10967   0.11534   0.12057
 Alpha virt. eigenvalues --    0.13086   0.14218   0.15129   0.15959   0.16203
 Alpha virt. eigenvalues --    0.18616   0.19039   0.20281   0.20930   0.27240
 Alpha virt. eigenvalues --    0.28190   0.29227   0.30325   0.31528   0.33688
 Alpha virt. eigenvalues --    0.34070   0.37585   0.38818   0.39888   0.41118
 Alpha virt. eigenvalues --    0.43220   0.44881   0.45218   0.47329   0.48684
 Alpha virt. eigenvalues --    0.50706   0.51013   0.52078   0.52352   0.52759
 Alpha virt. eigenvalues --    0.53566   0.54051   0.54347   0.55554   0.56721
 Alpha virt. eigenvalues --    0.57156   0.59139   0.60611   0.62527   0.64452
 Alpha virt. eigenvalues --    0.65597   0.66114   0.69924   0.70263   0.72522
 Alpha virt. eigenvalues --    0.73931   0.75441   0.78704   0.79468   0.82229
 Alpha virt. eigenvalues --    0.84448   0.85640   0.87477   0.88676   0.91825
 Alpha virt. eigenvalues --    0.93211   0.95792   0.96907   0.99548   1.00533
 Alpha virt. eigenvalues --    1.01829   1.02277   1.03441   1.04067   1.06161
 Alpha virt. eigenvalues --    1.07498   1.08218   1.11061   1.12127   1.12570
 Alpha virt. eigenvalues --    1.13277   1.15409   1.16469   1.17902   1.19471
 Alpha virt. eigenvalues --    1.23409   1.24429   1.24967   1.26134   1.28394
 Alpha virt. eigenvalues --    1.29071   1.30837   1.31826   1.32386   1.34199
 Alpha virt. eigenvalues --    1.37158   1.38213   1.38765   1.39959   1.40984
 Alpha virt. eigenvalues --    1.42298   1.43605   1.45503   1.46178   1.50111
 Alpha virt. eigenvalues --    1.52391   1.52704   1.55074   1.56488   1.58298
 Alpha virt. eigenvalues --    1.59468   1.61975   1.62385   1.63816   1.69061
 Alpha virt. eigenvalues --    1.74442   1.80161   1.82543   1.85544   1.88419
 Alpha virt. eigenvalues --    1.91519   1.99315   2.02884   2.05990   2.12295
 Alpha virt. eigenvalues --    2.18579   2.21537   2.23949   2.28046   2.31119
 Alpha virt. eigenvalues --    2.35674   2.36213   2.39830   2.40981   2.45387
 Alpha virt. eigenvalues --    2.47163   2.48723   2.50245   2.52208   2.55718
 Alpha virt. eigenvalues --    2.58642   2.60069   2.64878   2.65696   2.67910
 Alpha virt. eigenvalues --    2.70519   2.72755   2.74071   2.76346   2.79303
 Alpha virt. eigenvalues --    2.81974   2.85609   2.87427   2.88579   2.90745
 Alpha virt. eigenvalues --    2.90918   2.91400   2.93185   2.93580   2.96769
 Alpha virt. eigenvalues --    2.98093   2.98720   2.99695   3.00072   3.03949
 Alpha virt. eigenvalues --    3.04954   3.05401   3.07010   3.07325   3.08834
 Alpha virt. eigenvalues --    3.10836   3.12775   3.14413   3.15144   3.15410
 Alpha virt. eigenvalues --    3.17529   3.19165   3.20465   3.21487   3.22120
 Alpha virt. eigenvalues --    3.22371   3.22819   3.24611   3.26345   3.29074
 Alpha virt. eigenvalues --    3.32583   3.33594   3.37953   3.38479   3.41341
 Alpha virt. eigenvalues --    3.42074   3.42451   3.43981   3.45510   3.46808
 Alpha virt. eigenvalues --    3.49065   3.50285   3.51178   3.53181   3.53278
 Alpha virt. eigenvalues --    3.55971   3.56667   3.58665   3.60124   3.61074
 Alpha virt. eigenvalues --    3.61957   3.62977   3.66430   3.66625   3.67247
 Alpha virt. eigenvalues --    3.69229   3.73464   3.74465   3.79257   3.80973
 Alpha virt. eigenvalues --    3.82218   3.84329   3.85654   3.87335   3.91177
 Alpha virt. eigenvalues --    3.92108   3.92346   3.94053   3.95824   3.97764
 Alpha virt. eigenvalues --    3.98500   4.02084   4.02541   4.03798   4.05100
 Alpha virt. eigenvalues --    4.08026   4.10206   4.10766   4.12003   4.12579
 Alpha virt. eigenvalues --    4.13600   4.14491   4.16604   4.17756   4.19680
 Alpha virt. eigenvalues --    4.20572   4.21403   4.21670   4.24807   4.26518
 Alpha virt. eigenvalues --    4.26916   4.29375   4.30101   4.31503   4.35379
 Alpha virt. eigenvalues --    4.37703   4.39718   4.41706   4.45740   4.47243
 Alpha virt. eigenvalues --    4.49120   4.50868   4.53861   4.56433   4.60529
 Alpha virt. eigenvalues --    4.63828   4.64393   4.67406   4.68283   4.70966
 Alpha virt. eigenvalues --    4.73216   4.78775   4.82526   4.87494   4.90251
 Alpha virt. eigenvalues --    4.91463   4.94965   4.99890   5.00385   5.02002
 Alpha virt. eigenvalues --    5.03723   5.04903   5.05981   5.06843   5.07889
 Alpha virt. eigenvalues --    5.12465   5.15630   5.16363   5.19954   5.23889
 Alpha virt. eigenvalues --    5.25331   5.28076   5.31678   5.33099   5.34196
 Alpha virt. eigenvalues --    5.34464   5.35522   5.37894   5.38963   5.39956
 Alpha virt. eigenvalues --    5.41949   5.45608   5.46040   5.49214   5.49722
 Alpha virt. eigenvalues --    5.52734   5.56629   5.65044   5.66420   5.71442
 Alpha virt. eigenvalues --    5.78927   5.88304   5.94700   5.95307   5.97027
 Alpha virt. eigenvalues --    6.00469   6.02700   6.05348   6.06556   6.10018
 Alpha virt. eigenvalues --    6.13395   6.19148   6.27199   6.37145   6.38079
 Alpha virt. eigenvalues --    6.40445   6.65455   6.73061   6.74902   6.82140
 Alpha virt. eigenvalues --    6.96281   7.04618   7.07366   7.14546   7.44189
 Alpha virt. eigenvalues --    7.47964   7.58765   7.69878   9.80269  10.11614
 Alpha virt. eigenvalues --   10.64928  13.53432  13.59625  14.10759  14.42773
  Beta  occ. eigenvalues --  -19.78381 -19.76326 -10.65765 -10.64096 -10.61904
  Beta  occ. eigenvalues --  -10.61707 -10.61109  -1.25414  -0.98027  -0.94066
  Beta  occ. eigenvalues --   -0.80441  -0.78302  -0.76464  -0.62019  -0.56919
  Beta  occ. eigenvalues --   -0.54543  -0.54162  -0.53612  -0.53136  -0.49436
  Beta  occ. eigenvalues --   -0.46345  -0.45074  -0.44521  -0.43106  -0.41919
  Beta  occ. eigenvalues --   -0.35406  -0.34194  -0.29336
  Beta virt. eigenvalues --   -0.05487   0.07422   0.07599   0.11407   0.11692
  Beta virt. eigenvalues --    0.12179   0.13476   0.14442   0.15402   0.15962
  Beta virt. eigenvalues --    0.16399   0.18823   0.19299   0.20538   0.21295
  Beta virt. eigenvalues --    0.27483   0.28572   0.29676   0.30847   0.32033
  Beta virt. eigenvalues --    0.33938   0.34658   0.37642   0.39666   0.40678
  Beta virt. eigenvalues --    0.41682   0.43261   0.44985   0.45493   0.47808
  Beta virt. eigenvalues --    0.49120   0.51186   0.51319   0.52277   0.52603
  Beta virt. eigenvalues --    0.53253   0.53738   0.54505   0.55073   0.56059
  Beta virt. eigenvalues --    0.57165   0.57858   0.59743   0.61303   0.62835
  Beta virt. eigenvalues --    0.64661   0.65808   0.66269   0.70151   0.70628
  Beta virt. eigenvalues --    0.73085   0.74539   0.75532   0.79021   0.79827
  Beta virt. eigenvalues --    0.82617   0.84755   0.85943   0.87749   0.89072
  Beta virt. eigenvalues --    0.91908   0.93619   0.95950   0.97052   0.99663
  Beta virt. eigenvalues --    1.00753   1.02051   1.02457   1.03606   1.04273
  Beta virt. eigenvalues --    1.06331   1.07658   1.08607   1.11517   1.12801
  Beta virt. eigenvalues --    1.12943   1.13740   1.15645   1.16743   1.17973
  Beta virt. eigenvalues --    1.19799   1.23611   1.24629   1.24998   1.26174
  Beta virt. eigenvalues --    1.28429   1.29636   1.31091   1.32301   1.32873
  Beta virt. eigenvalues --    1.34291   1.37321   1.38410   1.38963   1.40050
  Beta virt. eigenvalues --    1.41198   1.42662   1.43814   1.45731   1.46470
  Beta virt. eigenvalues --    1.50510   1.52400   1.53221   1.55498   1.56698
  Beta virt. eigenvalues --    1.58679   1.59740   1.62194   1.62767   1.64182
  Beta virt. eigenvalues --    1.69433   1.75309   1.80569   1.83200   1.86213
  Beta virt. eigenvalues --    1.89470   1.92292   1.99597   2.03494   2.06948
  Beta virt. eigenvalues --    2.12691   2.19636   2.22779   2.24988   2.28329
  Beta virt. eigenvalues --    2.31678   2.36553   2.36698   2.40261   2.41707
  Beta virt. eigenvalues --    2.45386   2.47403   2.48943   2.50509   2.52555
  Beta virt. eigenvalues --    2.55901   2.58983   2.60617   2.66003   2.66209
  Beta virt. eigenvalues --    2.68424   2.70657   2.72881   2.74325   2.76449
  Beta virt. eigenvalues --    2.79566   2.82342   2.86094   2.88088   2.89444
  Beta virt. eigenvalues --    2.90962   2.91283   2.91662   2.93354   2.93698
  Beta virt. eigenvalues --    2.97147   2.98684   2.99082   3.00080   3.00727
  Beta virt. eigenvalues --    3.04316   3.05058   3.05998   3.07407   3.07494
  Beta virt. eigenvalues --    3.09198   3.11055   3.12976   3.14514   3.15399
  Beta virt. eigenvalues --    3.15881   3.17768   3.19646   3.20701   3.21844
  Beta virt. eigenvalues --    3.22342   3.22468   3.23458   3.25146   3.26975
  Beta virt. eigenvalues --    3.29461   3.33407   3.34147   3.38009   3.38738
  Beta virt. eigenvalues --    3.41535   3.42395   3.42571   3.44084   3.45599
  Beta virt. eigenvalues --    3.47031   3.49588   3.50768   3.51384   3.53235
  Beta virt. eigenvalues --    3.53428   3.56025   3.56788   3.58829   3.60455
  Beta virt. eigenvalues --    3.61321   3.62116   3.63168   3.66709   3.66875
  Beta virt. eigenvalues --    3.67347   3.69342   3.73675   3.74698   3.79361
  Beta virt. eigenvalues --    3.81232   3.82373   3.84439   3.85811   3.87547
  Beta virt. eigenvalues --    3.91215   3.92184   3.92530   3.94157   3.95914
  Beta virt. eigenvalues --    3.97855   3.98683   4.02109   4.02633   4.03731
  Beta virt. eigenvalues --    4.05141   4.07889   4.10271   4.10675   4.11904
  Beta virt. eigenvalues --    4.12764   4.13697   4.14514   4.16627   4.17954
  Beta virt. eigenvalues --    4.19771   4.20479   4.21343   4.21751   4.24755
  Beta virt. eigenvalues --    4.26533   4.27015   4.29382   4.30311   4.31624
  Beta virt. eigenvalues --    4.35498   4.37765   4.39818   4.42052   4.46000
  Beta virt. eigenvalues --    4.47438   4.49397   4.51029   4.54403   4.56504
  Beta virt. eigenvalues --    4.61134   4.64167   4.65184   4.67696   4.68776
  Beta virt. eigenvalues --    4.71363   4.73559   4.79468   4.82719   4.87943
  Beta virt. eigenvalues --    4.90494   4.91549   4.95130   5.00152   5.00641
  Beta virt. eigenvalues --    5.02218   5.03971   5.05130   5.06267   5.07417
  Beta virt. eigenvalues --    5.08210   5.12905   5.16284   5.16915   5.20397
  Beta virt. eigenvalues --    5.24328   5.25496   5.28589   5.32070   5.33297
  Beta virt. eigenvalues --    5.34513   5.34813   5.35820   5.38079   5.39172
  Beta virt. eigenvalues --    5.40412   5.42202   5.45645   5.46204   5.49448
  Beta virt. eigenvalues --    5.49892   5.52862   5.56783   5.65606   5.67251
  Beta virt. eigenvalues --    5.71696   5.79416   5.89618   5.94818   5.95429
  Beta virt. eigenvalues --    5.97995   6.01027   6.02984   6.05777   6.06829
  Beta virt. eigenvalues --    6.10767   6.13530   6.21043   6.27990   6.38210
  Beta virt. eigenvalues --    6.38622   6.40828   6.66426   6.75835   6.77562
  Beta virt. eigenvalues --    6.83512   6.98490   7.06582   7.08595   7.16649
  Beta virt. eigenvalues --    7.44452   7.50022   7.60330   7.70770   9.81479
  Beta virt. eigenvalues --   10.11509  10.65791  13.53607  13.60221  14.10760
  Beta virt. eigenvalues --   14.43247
          Condensed to atoms (all electrons):
               1          2          3          4          5          6
     1  C    5.046549   0.416537   0.404081  -0.003004   0.000407   0.000297
     2  H    0.416537   0.542661  -0.030375   0.000008   0.000041   0.000027
     3  H    0.404081  -0.030375   0.563452   0.000146  -0.000368  -0.000011
     4  C   -0.003004   0.000008   0.000146   4.614304   0.379738   0.398764
     5  H    0.000407   0.000041  -0.000368   0.379738   0.704052  -0.037652
     6  H    0.000297   0.000027  -0.000011   0.398764  -0.037652   0.589413
     7  H   -0.000315  -0.000004   0.000050   0.420165  -0.057509  -0.028181
     8  O    0.001879   0.000120   0.000522   0.298255  -0.050266  -0.025901
     9  O   -0.070792  -0.000919   0.000032  -0.042871  -0.002442   0.006701
    10  H    0.235326  -0.006369  -0.012517   0.001057   0.004205  -0.000642
    11  C    0.374660  -0.041045  -0.038935   0.002042  -0.001562   0.000625
    12  C   -0.061155  -0.007018   0.006187  -0.001486  -0.004212   0.000104
    13  H    0.006336  -0.000017  -0.000314  -0.000112   0.000056   0.000061
    14  H   -0.006729   0.002513   0.000078   0.000080   0.000046  -0.000032
    15  C   -0.056543   0.005507  -0.004203  -0.000996  -0.003858  -0.000015
    16  H   -0.004481  -0.000212   0.001927   0.000025   0.000089   0.000001
    17  H    0.005387  -0.000323   0.000162   0.000134   0.000279  -0.000012
    18  H    0.002448   0.000089  -0.002498  -0.001488  -0.001298   0.000219
               7          8          9         10         11         12
     1  C   -0.000315   0.001879  -0.070792   0.235326   0.374660  -0.061155
     2  H   -0.000004   0.000120  -0.000919  -0.006369  -0.041045  -0.007018
     3  H    0.000050   0.000522   0.000032  -0.012517  -0.038935   0.006187
     4  C    0.420165   0.298255  -0.042871   0.001057   0.002042  -0.001486
     5  H   -0.057509  -0.050266  -0.002442   0.004205  -0.001562  -0.004212
     6  H   -0.028181  -0.025901   0.006701  -0.000642   0.000625   0.000104
     7  H    0.598510  -0.036997   0.003482   0.000213   0.000309   0.000502
     8  O   -0.036997   7.939757   0.072814  -0.024824  -0.004404   0.007871
     9  O    0.003482   0.072814   8.099399   0.173823  -0.009463   0.000060
    10  H    0.000213  -0.024824   0.173823   0.429143  -0.005280  -0.006669
    11  C    0.000309  -0.004404  -0.009463  -0.005280   4.926673   0.578444
    12  C    0.000502   0.007871   0.000060  -0.006669   0.578444   5.020192
    13  H    0.000002   0.000073   0.000028  -0.000025  -0.049990   0.416190
    14  H    0.000018   0.001220  -0.000227  -0.000069  -0.043794   0.412904
    15  C    0.000008   0.000123  -0.000505  -0.000920   0.349565  -0.053844
    16  H    0.000001   0.000007  -0.000065  -0.000381  -0.036745   0.001024
    17  H   -0.000018  -0.000028  -0.000031  -0.000081  -0.040122  -0.005650
    18  H   -0.000013  -0.000111   0.002892   0.002082  -0.049273  -0.000892
              13         14         15         16         17         18
     1  C    0.006336  -0.006729  -0.056543  -0.004481   0.005387   0.002448
     2  H   -0.000017   0.002513   0.005507  -0.000212  -0.000323   0.000089
     3  H   -0.000314   0.000078  -0.004203   0.001927   0.000162  -0.002498
     4  C   -0.000112   0.000080  -0.000996   0.000025   0.000134  -0.001488
     5  H    0.000056   0.000046  -0.003858   0.000089   0.000279  -0.001298
     6  H    0.000061  -0.000032  -0.000015   0.000001  -0.000012   0.000219
     7  H    0.000002   0.000018   0.000008   0.000001  -0.000018  -0.000013
     8  O    0.000073   0.001220   0.000123   0.000007  -0.000028  -0.000111
     9  O    0.000028  -0.000227  -0.000505  -0.000065  -0.000031   0.002892
    10  H   -0.000025  -0.000069  -0.000920  -0.000381  -0.000081   0.002082
    11  C   -0.049990  -0.043794   0.349565  -0.036745  -0.040122  -0.049273
    12  C    0.416190   0.412904  -0.053844   0.001024  -0.005650  -0.000892
    13  H    0.541504  -0.034406  -0.007978   0.000120   0.002538   0.000370
    14  H   -0.034406   0.536545   0.006462  -0.000297   0.000078  -0.000384
    15  C   -0.007978   0.006462   4.836468   0.410162   0.414942   0.403368
    16  H    0.000120  -0.000297   0.410162   0.575853  -0.023633  -0.038689
    17  H    0.002538   0.000078   0.414942  -0.023633   0.572674  -0.029145
    18  H    0.000370  -0.000384   0.403368  -0.038689  -0.029145   0.611901
          Atomic-Atomic Spin Densities.
               1          2          3          4          5          6
     1  C    0.518842   0.001701   0.004046   0.001175  -0.003894   0.000053
     2  H    0.001701  -0.020707   0.002514  -0.000050   0.000119  -0.000006
     3  H    0.004046   0.002514  -0.024413  -0.000104   0.000322  -0.000002
     4  C    0.001175  -0.000050  -0.000104  -0.007385   0.001786   0.000963
     5  H   -0.003894   0.000119   0.000322   0.001786   0.004928  -0.000902
     6  H    0.000053  -0.000006  -0.000002   0.000963  -0.000902  -0.001704
     7  H    0.000686  -0.000020  -0.000041  -0.000898  -0.001198   0.000723
     8  O    0.011454  -0.000618  -0.000391   0.001708  -0.002167   0.000330
     9  O   -0.068240   0.002743   0.002944  -0.003056   0.003693  -0.000198
    10  H    0.055232   0.001520   0.003060   0.001780  -0.003536   0.000118
    11  C   -0.022683   0.001752   0.001176  -0.001661   0.003148  -0.000171
    12  C   -0.017588  -0.001318  -0.000679  -0.001940   0.003594  -0.000069
    13  H   -0.000129   0.000017   0.000043  -0.000035   0.000121  -0.000009
    14  H   -0.000156  -0.000180  -0.000072   0.000006  -0.000041   0.000005
    15  C   -0.003119  -0.000169  -0.001508  -0.000072   0.000299   0.000018
    16  H    0.000935   0.000052   0.000109  -0.000030   0.000170  -0.000001
    17  H   -0.000018   0.000025   0.000036  -0.000058   0.000216  -0.000001
    18  H    0.001242  -0.000051   0.000238   0.000536  -0.002150   0.000012
               7          8          9         10         11         12
     1  C    0.000686   0.011454  -0.068240   0.055232  -0.022683  -0.017588
     2  H   -0.000020  -0.000618   0.002743   0.001520   0.001752  -0.001318
     3  H   -0.000041  -0.000391   0.002944   0.003060   0.001176  -0.000679
     4  C   -0.000898   0.001708  -0.003056   0.001780  -0.001661  -0.001940
     5  H   -0.001198  -0.002167   0.003693  -0.003536   0.003148   0.003594
     6  H    0.000723   0.000330  -0.000198   0.000118  -0.000171  -0.000069
     7  H    0.001074  -0.000307   0.000525   0.001209  -0.000373  -0.000307
     8  O   -0.000307   0.093162  -0.051304   0.010751  -0.002361  -0.007352
     9  O    0.000525  -0.051304   0.596169  -0.051001   0.008077   0.003587
    10  H    0.001209   0.010751  -0.051001  -0.100046   0.003179  -0.000004
    11  C   -0.000373  -0.002361   0.008077   0.003179  -0.250694   0.002015
    12  C   -0.000307  -0.007352   0.003587  -0.000004   0.002015   0.416733
    13  H   -0.000006  -0.000093   0.000028  -0.000032  -0.001018   0.005118
    14  H    0.000004   0.000167  -0.000139   0.000158  -0.000310   0.004620
    15  C   -0.000022  -0.000050   0.000109   0.000396   0.008049   0.000394
    16  H   -0.000007  -0.000024   0.000086   0.000029   0.004227  -0.000930
    17  H   -0.000010  -0.000029   0.000038  -0.000024   0.000705   0.000001
    18  H    0.000239   0.000351  -0.001142  -0.000582   0.005290  -0.000167
              13         14         15         16         17         18
     1  C   -0.000129  -0.000156  -0.003119   0.000935  -0.000018   0.001242
     2  H    0.000017  -0.000180  -0.000169   0.000052   0.000025  -0.000051
     3  H    0.000043  -0.000072  -0.001508   0.000109   0.000036   0.000238
     4  C   -0.000035   0.000006  -0.000072  -0.000030  -0.000058   0.000536
     5  H    0.000121  -0.000041   0.000299   0.000170   0.000216  -0.002150
     6  H   -0.000009   0.000005   0.000018  -0.000001  -0.000001   0.000012
     7  H   -0.000006   0.000004  -0.000022  -0.000007  -0.000010   0.000239
     8  O   -0.000093   0.000167  -0.000050  -0.000024  -0.000029   0.000351
     9  O    0.000028  -0.000139   0.000109   0.000086   0.000038  -0.001142
    10  H   -0.000032   0.000158   0.000396   0.000029  -0.000024  -0.000582
    11  C   -0.001018  -0.000310   0.008049   0.004227   0.000705   0.005290
    12  C    0.005118   0.004620   0.000394  -0.000930   0.000001  -0.000167
    13  H   -0.024924   0.002788   0.000163   0.000031  -0.000085  -0.000083
    14  H    0.002788  -0.022149  -0.000063  -0.000011   0.000000   0.000033
    15  C    0.000163  -0.000063   0.016181  -0.004734  -0.000787  -0.000643
    16  H    0.000031  -0.000011  -0.004734  -0.009306   0.000736   0.002141
    17  H   -0.000085   0.000000  -0.000787   0.000736  -0.001068  -0.000492
    18  H   -0.000083   0.000033  -0.000643   0.002141  -0.000492  -0.012584
 Mulliken charges and spin densities:
               1          2
     1  C   -0.290887   0.479541
     2  H    0.118780  -0.012677
     3  H    0.112584  -0.012723
     4  C   -0.064763  -0.007337
     5  H    0.070255   0.004508
     6  H    0.096233  -0.000842
     7  H    0.099776   0.001272
     8  O   -0.180110   0.053226
     9  O   -0.231917   0.442919
    10  H    0.211927  -0.077792
    11  C    0.088294  -0.241653
    12  C   -0.302552   0.405707
    13  H    0.125564  -0.018103
    14  H    0.125994  -0.015338
    15  C   -0.297743   0.014444
    16  H    0.115293  -0.006527
    17  H    0.102849  -0.000815
    18  H    0.100422  -0.007812
 Sum of Mulliken charges =  -0.00000   1.00000
 Mulliken charges and spin densities with hydrogens summed into heavy atoms:
               1          2
     1  C   -0.059523   0.454141
     4  C    0.201501  -0.002398
     8  O   -0.180110   0.053226
     9  O   -0.019990   0.365127
    11  C    0.088294  -0.241653
    12  C   -0.050994   0.372267
    15  C    0.020822  -0.000710
 APT charges:
               1
     1  C    0.431511
     2  H   -0.036003
     3  H   -0.041777
     4  C    0.427208
     5  H   -0.034191
     6  H   -0.006121
     7  H   -0.037420
     8  O   -0.325816
     9  O    0.066391
    10  H   -0.377272
    11  C   -0.078778
    12  C   -0.081348
    13  H    0.043407
    14  H    0.021725
    15  C    0.047372
    16  H   -0.009231
    17  H   -0.007411
    18  H   -0.002247
 Sum of APT charges =  -0.00000
 APT charges with hydrogens summed into heavy atoms:
               1
     1  C    0.353732
     4  C    0.349475
     8  O   -0.325816
     9  O   -0.310881
    11  C   -0.078778
    12  C   -0.016216
    15  C    0.028483
 Electronic spatial extent (au):  <R**2>=            971.6350
 Charge=             -0.0000 electrons
 Dipole moment (field-independent basis, Debye):
    X=              1.8365    Y=             -1.6530    Z=             -0.6494  Tot=              2.5548
 Quadrupole moment (field-independent basis, Debye-Ang):
   XX=            -46.9609   YY=            -42.1987   ZZ=            -43.8647
   XY=              4.2679   XZ=              0.0368   YZ=              0.0908
 Traceless Quadrupole moment (field-independent basis, Debye-Ang):
   XX=             -2.6195   YY=              2.1428   ZZ=              0.4767
   XY=              4.2679   XZ=              0.0368   YZ=              0.0908
 Octapole moment (field-independent basis, Debye-Ang**2):
  XXX=            -17.7244  YYY=              1.4013  ZZZ=              2.5033  XYY=             -2.3796
  XXY=             -9.6296  XXZ=             -6.1794  XZZ=             -2.2909  YZZ=              1.7406
  YYZ=              2.1698  XYZ=             -1.9266
 Hexadecapole moment (field-independent basis, Debye-Ang**3):
 XXXX=           -750.4923 YYYY=           -301.9267 ZZZZ=           -226.7158 XXXY=              8.8111
 XXXZ=             -7.6812 YYYX=              0.4346 YYYZ=             -4.6657 ZZZX=             -0.8144
 ZZZY=             -1.3274 XXYY=           -171.6392 XXZZ=           -164.0886 YYZZ=            -85.8133
 XXYZ=             -3.0829 YYXZ=             -1.2304 ZZXY=              1.4265
 N-N= 3.154244648265D+02 E-N=-1.442042433270D+03  KE= 3.453336487620D+02
  Exact polarizability: 108.670   1.761  77.222   7.321  -6.437  75.474
 Approx polarizability:  97.333  -2.399  85.548   4.372 -12.041  88.514
                          Isotropic Fermi Contact Couplings
        Atom                 a.u.       MegaHertz       Gauss      10(-4) cm-1
     1  C(13)              0.06161      69.25581      24.71219      23.10125
     2  H(1)              -0.00323     -14.42136      -5.14590      -4.81045
     3  H(1)              -0.00307     -13.70711      -4.89104      -4.57220
     4  C(13)             -0.00470      -5.28189      -1.88471      -1.76185
     5  H(1)               0.00207       9.27190       3.30845       3.09277
     6  H(1)              -0.00007      -0.29628      -0.10572      -0.09883
     7  H(1)               0.00060       2.70274       0.96441       0.90154
     8  O(17)              0.02376     -14.40615      -5.14047      -4.80538
     9  O(17)              0.03375     -20.45630      -7.29932      -6.82349
    10  H(1)              -0.01951     -87.19738     -31.11419     -29.08592
    11  C(13)             -0.01060     -11.92142      -4.25386      -3.97656
    12  C(13)              0.00569       6.39401       2.28154       2.13281
    13  H(1)              -0.00345     -15.41017      -5.49873      -5.14028
    14  H(1)              -0.00318     -14.21135      -5.07096      -4.74040
    15  C(13)              0.00058       0.64649       0.23068       0.21565
    16  H(1)              -0.00142      -6.36653      -2.27174      -2.12365
    17  H(1)              -0.00014      -0.60418      -0.21559      -0.20153
    18  H(1)              -0.00108      -4.83115      -1.72387      -1.61150
 --------------------------------------------------------
       Center         ----  Spin Dipole Couplings  ----
                      3XX-RR        3YY-RR        3ZZ-RR
 --------------------------------------------------------
     1   Atom        0.468295     -0.241470     -0.226825
     2   Atom       -0.000683     -0.006092      0.006775
     3   Atom        0.003265     -0.021741      0.018476
     4   Atom       -0.005600      0.010057     -0.004457
     5   Atom       -0.003764      0.006767     -0.003003
     6   Atom       -0.001862      0.006189     -0.004327
     7   Atom       -0.001618      0.004230     -0.002612
     8   Atom        0.629254     -0.300260     -0.328994
     9   Atom        1.745423     -0.898100     -0.847323
    10   Atom        0.182252     -0.088801     -0.093450
    11   Atom       -0.053435      0.023027      0.030408
    12   Atom        0.248494     -0.102530     -0.145963
    13   Atom        0.002436      0.015992     -0.018428
    14   Atom        0.000062     -0.006333      0.006271
    15   Atom       -0.002382      0.001675      0.000708
    16   Atom        0.000499     -0.000556      0.000057
    17   Atom       -0.000782      0.000509      0.000273
    18   Atom       -0.001675      0.001217      0.000458
 --------------------------------------------------------
                        XY            XZ            YZ
 --------------------------------------------------------
     1   Atom        0.106749      0.135928      0.018932
     2   Atom        0.001977      0.000575      0.029501
     3   Atom        0.011544     -0.007523     -0.021879
     4   Atom        0.003974      0.000758      0.003012
     5   Atom       -0.001201      0.000835      0.004285
     6   Atom        0.002887      0.000274     -0.000936
     7   Atom        0.005571      0.002622      0.003726
     8   Atom       -0.045133      0.011523      0.022742
     9   Atom       -0.189852      0.393292     -0.024255
    10   Atom        0.045162      0.019479      0.000239
    11   Atom       -0.047949     -0.009674     -0.016446
    12   Atom        0.131476      0.052741      0.015279
    13   Atom       -0.005999      0.005604     -0.007710
    14   Atom       -0.001722     -0.003970      0.013861
    15   Atom       -0.003826     -0.001741      0.001641
    16   Atom       -0.002747     -0.002234      0.001752
    17   Atom       -0.002144     -0.001399      0.002633
    18   Atom       -0.002081     -0.002236      0.003927
 --------------------------------------------------------


 ---------------------------------------------------------------------------------
              Anisotropic Spin Dipole Couplings in Principal Axis System
 ---------------------------------------------------------------------------------

       Atom             a.u.   MegaHertz   Gauss  10(-4) cm-1        Axes

              Baa    -0.2574   -34.540   -12.325   -11.521 -0.1792  0.9632  0.2004
     1 C(13)  Bbb    -0.2522   -33.841   -12.075   -11.288 -0.1478 -0.2278  0.9624
              Bcc     0.5096    68.380    24.400    22.809  0.9726  0.1429  0.1832
 
              Baa    -0.0299   -15.954    -5.693    -5.322 -0.0404  0.7789 -0.6259
     2 H(1)   Bbb    -0.0007    -0.388    -0.138    -0.129  0.9977 -0.0023 -0.0673
              Bcc     0.0306    16.341     5.831     5.451  0.0539  0.6272  0.7770
 
              Baa    -0.0330   -17.617    -6.286    -5.876 -0.2158  0.9096  0.3550
     3 H(1)   Bbb     0.0003     0.151     0.054     0.050  0.9021  0.0466  0.4290
              Bcc     0.0327    17.465     6.232     5.826 -0.3737 -0.4128  0.8306
 
              Baa    -0.0066    -0.879    -0.314    -0.293  0.9732 -0.2286 -0.0237
     4 C(13)  Bbb    -0.0051    -0.678    -0.242    -0.226 -0.0208 -0.1901  0.9815
              Bcc     0.0116     1.558     0.556     0.520  0.2289  0.9548  0.1898
 
              Baa    -0.0055    -2.926    -1.044    -0.976 -0.5845 -0.3183  0.7464
     5 H(1)   Bbb    -0.0030    -1.575    -0.562    -0.525  0.8085 -0.1509  0.5688
              Bcc     0.0084     4.502     1.606     1.502 -0.0685  0.9359  0.3456
 
              Baa    -0.0046    -2.429    -0.867    -0.810 -0.2615  0.1533  0.9529
     6 H(1)   Bbb    -0.0026    -1.399    -0.499    -0.467  0.9168 -0.2692  0.2949
              Bcc     0.0072     3.828     1.366     1.277  0.3017  0.9508 -0.0702
 
              Baa    -0.0051    -2.722    -0.971    -0.908  0.8607 -0.3775 -0.3415
     7 H(1)   Bbb    -0.0042    -2.255    -0.805    -0.752  0.1374 -0.4738  0.8699
              Bcc     0.0093     4.977     1.776     1.660  0.4902  0.7956  0.3559
 
              Baa    -0.3426    24.790     8.846     8.269 -0.0335 -0.5004  0.8651
     8 O(17)  Bbb    -0.2890    20.909     7.461     6.974  0.0362  0.8644  0.5014
              Bcc     0.6316   -45.699   -16.306   -15.243  0.9988 -0.0481  0.0108
 
              Baa    -0.9135    66.099    23.586    22.048  0.1272  0.8946 -0.4284
     9 O(17)  Bbb    -0.9038    65.396    23.335    21.814 -0.1008  0.4413  0.8917
              Bcc     1.8173  -131.495   -46.921   -43.862  0.9867 -0.0703  0.1463
 
              Baa    -0.0984   -52.501   -18.734   -17.513 -0.1665  0.7681  0.6183
    10 H(1)   Bbb    -0.0925   -49.345   -17.608   -16.460  0.0464 -0.6202  0.7830
              Bcc     0.1909   101.846    36.341    33.972  0.9849  0.1591  0.0676
 
              Baa    -0.0788   -10.581    -3.775    -3.529  0.8861  0.4404  0.1447
    11 C(13)  Bbb     0.0270     3.617     1.291     1.206 -0.3281  0.3751  0.8670
              Bcc     0.0519     6.964     2.485     2.323 -0.3275  0.8157 -0.4769
 
              Baa    -0.1534   -20.582    -7.344    -6.866 -0.2029  0.2392  0.9495
    12 C(13)  Bbb    -0.1457   -19.546    -6.975    -6.520 -0.2679  0.9191 -0.2888
              Bcc     0.2990    40.129    14.319    13.385  0.9418  0.3130  0.1224
 
              Baa    -0.0209   -11.144    -3.976    -3.717 -0.1882  0.1715  0.9670
    13 H(1)   Bbb     0.0004     0.229     0.082     0.076  0.9092  0.4028  0.1055
              Bcc     0.0205    10.915     3.895     3.641 -0.3714  0.8991 -0.2318
 
              Baa    -0.0153    -8.158    -2.911    -2.721 -0.0475  0.8362 -0.5463
    14 H(1)   Bbb    -0.0010    -0.548    -0.196    -0.183  0.9660  0.1777  0.1880
              Bcc     0.0163     8.706     3.107     2.904 -0.2543  0.5188  0.8162
 
              Baa    -0.0048    -0.640    -0.228    -0.214  0.8668  0.4811  0.1314
    15 C(13)  Bbb    -0.0004    -0.054    -0.019    -0.018  0.1242 -0.4634  0.8774
              Bcc     0.0052     0.694     0.248     0.232 -0.4830  0.7442  0.4615
 
              Baa    -0.0028    -1.509    -0.539    -0.503  0.6555  0.7535  0.0501
    16 H(1)   Bbb    -0.0017    -0.923    -0.329    -0.308  0.3751 -0.3825  0.8444
              Bcc     0.0046     2.432     0.868     0.811  0.6554 -0.5348 -0.5334
 
              Baa    -0.0026    -1.375    -0.491    -0.459  0.5586  0.7277 -0.3981
    17 H(1)   Bbb    -0.0017    -0.911    -0.325    -0.304  0.6987 -0.1542  0.6986
              Bcc     0.0043     2.286     0.816     0.763 -0.4470  0.6684  0.5946
 
              Baa    -0.0033    -1.740    -0.621    -0.580  0.5004 -0.4278  0.7528
    18 H(1)   Bbb    -0.0027    -1.458    -0.520    -0.486  0.7831  0.5944 -0.1828
              Bcc     0.0060     3.197     1.141     1.066 -0.3693  0.6810  0.6324
 

 ---------------------------------------------------------------------------------

 Calling FoFJK, ICntrl=  10100127 FMM=F ISym2X=0 I1Cent= 0 IOpClX= 1 NMat=1 NMatS=1 NMatT=0.
 -------------------------------------------------------------------
 Center     Atomic                   Forces (Hartrees/Bohr)
 Number     Number              X              Y              Z
 -------------------------------------------------------------------
      1        6           0.000001266   -0.000000398   -0.000000205
      2        1          -0.000000832    0.000000876    0.000000137
      3        1          -0.000000317   -0.000000136   -0.000000355
      4        6          -0.000000075   -0.000000286   -0.000001386
      5        1           0.000000873   -0.000000440   -0.000000235
      6        1           0.000000036   -0.000000221   -0.000000342
      7        1           0.000000450   -0.000000866   -0.000000877
      8        8           0.000003531    0.000006030   -0.000005645
      9        8          -0.000001195   -0.000005967    0.000005341
     10        1          -0.000002545   -0.000000523   -0.000000235
     11        6          -0.000000959   -0.000000177    0.000000759
     12        6          -0.000000913    0.000001039    0.000000532
     13        1          -0.000000091    0.000000181    0.000000608
     14        1          -0.000000638    0.000000090   -0.000000195
     15        6          -0.000000235    0.000000828    0.000000593
     16        1           0.000000461    0.000000498    0.000000319
     17        1           0.000000717   -0.000000080    0.000000760
     18        1           0.000000467   -0.000000447    0.000000426
 -------------------------------------------------------------------
 Cartesian Forces:  Max     0.000006030 RMS     0.000001771
 FormGI is forming the generalized inverse of G from B-inverse, IUseBI=4.

 GradGradGradGradGradGradGradGradGradGradGradGradGradGradGradGradGradGrad
 Berny optimization.
 Internal  Forces:  Max     0.000009412 RMS     0.000001634
 Search for a saddle point.
 Step number   1 out of a maximum of  108 on scan point     1 out of    37
 All quantities printed in internal units (Hartrees-Bohrs-Radians)
 Swapping is turned off.
 Second derivative matrix not updated -- analytic derivatives used.
 ITU=  0
     Eigenvalues ---   -0.08549   0.00201   0.00518   0.00723   0.01682
     Eigenvalues ---    0.02033   0.02668   0.03483   0.03673   0.03873
     Eigenvalues ---    0.04226   0.05674   0.05923   0.06246   0.08456
     Eigenvalues ---    0.08503   0.10259   0.10627   0.11831   0.12290
     Eigenvalues ---    0.12501   0.12731   0.13034   0.14003   0.14507
     Eigenvalues ---    0.16565   0.16933   0.18142   0.18669   0.20103
     Eigenvalues ---    0.23604   0.26165   0.31853   0.32384   0.33490
     Eigenvalues ---    0.33875   0.34032   0.34523   0.34612   0.34893
     Eigenvalues ---    0.35166   0.35465   0.35806   0.36472   0.36633
     Eigenvalues ---    0.41742   0.584311000.000001000.000001000.00000
     Eigenvalues --- 1000.000001000.000001000.000001000.000001000.00000
     Eigenvalues --- 1000.000001000.000001000.000001000.000001000.00000
     Eigenvalues --- 1000.000001000.000001000.000001000.000001000.00000
     Eigenvalues --- 1000.00000
 Eigenvectors required to have negative eigenvalues:
                          R10       R3        R9        R4        D5
   1                    0.72451  -0.59994  -0.16691   0.11695  -0.09208
                          D4        D2        D3        A2        A27
   1                   -0.08929   0.08773   0.08495   0.08170  -0.07387
 RFO step:  Lambda0=3.364114542D-12 Lambda= 0.00000000D+00.
 Linear search not attempted -- option 19 set.
 Iteration  1 RMS(Cart)=  0.00006226 RMS(Int)=  0.00000000
 Iteration  2 RMS(Cart)=  0.00000000 RMS(Int)=  0.00000000
 Iteration  1 RMS(Cart)=  0.00000000 RMS(Int)=  0.00000000
 Variable       Old X    -DE/DX   Delta X   Delta X   Delta X     New X
                                 (Linear)    (Quad)   (Total)
    R1        2.04981   0.00000   0.00000   0.00000   0.00000   2.04981
    R2        2.05131   0.00000   0.00000   0.00000   0.00000   2.05131
    R3        2.48652  -0.00000   0.00000  -0.00000  -0.00000   2.48652
    R4        2.73976  -0.00000   0.00000  -0.00000  -0.00000   2.73976
    R5        2.05726   0.00000   0.00000   0.00000   0.00000   2.05726
    R6        2.05551  -0.00000   0.00000  -0.00000  -0.00000   2.05551
    R7        2.05712   0.00000   0.00000  -0.00000  -0.00000   2.05712
    R8        2.69078   0.00000   0.00000   0.00001   0.00001   2.69079
    R9        2.63769  -0.00001   0.00000  -0.00003  -0.00003   2.63766
   R10        2.31454  -0.00000   0.00000   0.00000   0.00000   2.31454
   R11        2.54452  -0.00000   0.00000   0.00000   0.00000   2.54452
   R12        2.84108  -0.00000   0.00000  -0.00000  -0.00000   2.84108
   R13        2.04149   0.00000   0.00000   0.00000   0.00000   2.04149
   R14        2.04086  -0.00000   0.00000  -0.00000  -0.00000   2.04086
   R15        2.06093   0.00000   0.00000   0.00000   0.00000   2.06093
   R16        2.05490   0.00000   0.00000   0.00000   0.00000   2.05490
   R17        2.06210  -0.00000   0.00000   0.00000   0.00000   2.06210
    A1        1.98625  -0.00000   0.00000   0.00000   0.00000   1.98625
    A2        1.74720   0.00000   0.00000   0.00000   0.00000   1.74721
    A3        2.02802   0.00000   0.00000   0.00001   0.00001   2.02802
    A4        1.79727   0.00000   0.00000   0.00001   0.00001   1.79727
    A5        2.03592  -0.00000   0.00000  -0.00000  -0.00000   2.03592
    A6        1.81362  -0.00000   0.00000  -0.00001  -0.00001   1.81361
    A7        1.91937   0.00000   0.00000   0.00000   0.00000   1.91937
    A8        1.92084  -0.00000   0.00000   0.00000   0.00000   1.92084
    A9        1.93566  -0.00000   0.00000  -0.00000  -0.00000   1.93566
   A10        1.92603  -0.00000   0.00000   0.00000   0.00000   1.92603
   A11        1.83669  -0.00000   0.00000  -0.00000  -0.00000   1.83669
   A12        1.92384   0.00000   0.00000  -0.00000  -0.00000   1.92384
   A13        1.88854  -0.00000   0.00000   0.00000   0.00000   1.88854
   A14        1.80787  -0.00000   0.00000  -0.00001  -0.00001   1.80786
   A15        2.11438  -0.00000   0.00000  -0.00000  -0.00000   2.11438
   A16        2.04520   0.00000   0.00000   0.00000   0.00000   2.04520
   A17        2.12189   0.00000   0.00000  -0.00000  -0.00000   2.12189
   A18        2.11891   0.00000   0.00000   0.00000   0.00000   2.11891
   A19        2.11291   0.00000   0.00000   0.00000   0.00000   2.11291
   A20        2.05136  -0.00000   0.00000  -0.00000  -0.00000   2.05136
   A21        1.92947   0.00000   0.00000   0.00000   0.00000   1.92948
   A22        1.95052  -0.00000   0.00000  -0.00000  -0.00000   1.95052
   A23        1.92877   0.00000   0.00000  -0.00000  -0.00000   1.92877
   A24        1.89308  -0.00000   0.00000   0.00000   0.00000   1.89308
   A25        1.86429  -0.00000   0.00000  -0.00000  -0.00000   1.86429
   A26        1.89513  -0.00000   0.00000  -0.00000  -0.00000   1.89512
   A27        3.13287  -0.00000   0.00000  -0.00004  -0.00004   3.13283
   A28        3.01613  -0.00000   0.00000  -0.00003  -0.00003   3.01610
    D1        0.56834  -0.00000   0.00000   0.00000   0.00000   0.56834
    D2        0.37779  -0.00000   0.00000   0.00001   0.00001   0.37781
    D3       -2.82577  -0.00000   0.00000   0.00000   0.00000  -2.82577
    D4        2.79691   0.00000   0.00000   0.00002   0.00002   2.79693
    D5       -0.40665   0.00000   0.00000   0.00001   0.00001  -0.40664
    D6       -1.52229  -0.00000   0.00000   0.00002   0.00002  -1.52227
    D7        1.55733  -0.00000   0.00000   0.00001   0.00001   1.55734
    D8        1.10238   0.00000   0.00000   0.00004   0.00004   1.10242
    D9       -3.10597   0.00000   0.00000   0.00005   0.00005  -3.10592
   D10       -1.02935   0.00000   0.00000   0.00005   0.00005  -1.02931
   D11       -1.75202   0.00000   0.00000  -0.00003  -0.00003  -1.75204
   D12        3.09513  -0.00000   0.00000   0.00000   0.00000   3.09513
   D13       -0.04839   0.00000   0.00000   0.00000   0.00000  -0.04838
   D14        0.01825   0.00000   0.00000   0.00001   0.00001   0.01826
   D15       -3.12527   0.00000   0.00000   0.00001   0.00001  -3.12526
   D16        1.14635  -0.00000   0.00000  -0.00011  -0.00011   1.14624
   D17       -3.02641  -0.00000   0.00000  -0.00011  -0.00011  -3.02652
   D18       -0.91386  -0.00000   0.00000  -0.00012  -0.00012  -0.91398
   D19       -2.05749  -0.00000   0.00000  -0.00012  -0.00012  -2.05762
   D20        0.05293  -0.00000   0.00000  -0.00012  -0.00012   0.05281
   D21        2.16548  -0.00000   0.00000  -0.00012  -0.00012   2.16535
         Item               Value     Threshold  Converged?
 Maximum Force            0.000009     0.000450     YES
 RMS     Force            0.000002     0.000300     YES
 Maximum Displacement     0.000188     0.001800     YES
 RMS     Displacement     0.000062     0.001200     YES
 Predicted change in Energy=-3.930457D-10
 Optimization completed.
    -- Stationary point found.
                           ----------------------------
                           !   Optimized Parameters   !
                           ! (Angstroms and Degrees)  !
 --------------------------                            --------------------------
 ! Name  Definition              Value          Derivative Info.                !
 --------------------------------------------------------------------------------
 ! R1    R(1,2)                  1.0847         -DE/DX =    0.0                 !
 ! R2    R(1,3)                  1.0855         -DE/DX =    0.0                 !
 ! R3    R(1,10)                 1.3158         -DE/DX =    0.0                 !
 ! R4    R(1,11)                 1.4498         -DE/DX =    0.0                 !
 ! R5    R(4,5)                  1.0887         -DE/DX =    0.0                 !
 ! R6    R(4,6)                  1.0877         -DE/DX =    0.0                 !
 ! R7    R(4,7)                  1.0886         -DE/DX =    0.0                 !
 ! R8    R(4,8)                  1.4239         -DE/DX =    0.0                 !
 ! R9    R(8,9)                  1.3958         -DE/DX =    0.0                 !
 ! R10   R(9,10)                 1.2248         -DE/DX =    0.0                 !
 ! R11   R(11,12)                1.3465         -DE/DX =    0.0                 !
 ! R12   R(11,15)                1.5034         -DE/DX =    0.0                 !
 ! R13   R(12,13)                1.0803         -DE/DX =    0.0                 !
 ! R14   R(12,14)                1.08           -DE/DX =    0.0                 !
 ! R15   R(15,16)                1.0906         -DE/DX =    0.0                 !
 ! R16   R(15,17)                1.0874         -DE/DX =    0.0                 !
 ! R17   R(15,18)                1.0912         -DE/DX =    0.0                 !
 ! A1    A(2,1,3)              113.8036         -DE/DX =    0.0                 !
 ! A2    A(2,1,10)             100.1074         -DE/DX =    0.0                 !
 ! A3    A(2,1,11)             116.1969         -DE/DX =    0.0                 !
 ! A4    A(3,1,10)             102.9757         -DE/DX =    0.0                 !
 ! A5    A(3,1,11)             116.6496         -DE/DX =    0.0                 !
 ! A6    A(10,1,11)            103.9127         -DE/DX =    0.0                 !
 ! A7    A(5,4,6)              109.9718         -DE/DX =    0.0                 !
 ! A8    A(5,4,7)              110.0559         -DE/DX =    0.0                 !
 ! A9    A(5,4,8)              110.9052         -DE/DX =    0.0                 !
 ! A10   A(6,4,7)              110.3534         -DE/DX =    0.0                 !
 ! A11   A(6,4,8)              105.2347         -DE/DX =    0.0                 !
 ! A12   A(7,4,8)              110.2278         -DE/DX =    0.0                 !
 ! A13   A(4,8,9)              108.2054         -DE/DX =    0.0                 !
 ! A14   A(8,9,10)             103.5833         -DE/DX =    0.0                 !
 ! A15   A(1,11,12)            121.145          -DE/DX =    0.0                 !
 ! A16   A(1,11,15)            117.1816         -DE/DX =    0.0                 !
 ! A17   A(12,11,15)           121.5751         -DE/DX =    0.0                 !
 ! A18   A(11,12,13)           121.4047         -DE/DX =    0.0                 !
 ! A19   A(11,12,14)           121.0608         -DE/DX =    0.0                 !
 ! A20   A(13,12,14)           117.5344         -DE/DX =    0.0                 !
 ! A21   A(11,15,16)           110.5506         -DE/DX =    0.0                 !
 ! A22   A(11,15,17)           111.7564         -DE/DX =    0.0                 !
 ! A23   A(11,15,18)           110.5105         -DE/DX =    0.0                 !
 ! A24   A(16,15,17)           108.4655         -DE/DX =    0.0                 !
 ! A25   A(16,15,18)           106.8158         -DE/DX =    0.0                 !
 ! A26   A(17,15,18)           108.5827         -DE/DX =    0.0                 !
 ! A27   L(1,10,9,5,-1)        179.5003         -DE/DX =    0.0                 !
 ! A28   L(1,10,9,5,-2)        172.8115         -DE/DX =    0.0                 !
 ! D1    D(11,1,9,8)            32.5633         -DE/DX =    0.0                 !
 ! D2    D(2,1,11,12)           21.6459         -DE/DX =    0.0                 !
 ! D3    D(2,1,11,15)         -161.9047         -DE/DX =    0.0                 !
 ! D4    D(3,1,11,12)          160.2514         -DE/DX =    0.0                 !
 ! D5    D(3,1,11,15)          -23.2992         -DE/DX =    0.0                 !
 ! D6    D(10,1,11,12)         -87.2208         -DE/DX =    0.0                 !
 ! D7    D(10,1,11,15)          89.2287         -DE/DX =    0.0                 !
 ! D8    D(5,4,8,9)             63.1617         -DE/DX =    0.0                 !
 ! D9    D(6,4,8,9)           -177.9588         -DE/DX =    0.0                 !
 ! D10   D(7,4,8,9)            -58.9775         -DE/DX =    0.0                 !
 ! D11   D(4,8,9,10)          -100.3832         -DE/DX =    0.0                 !
 ! D12   D(1,11,12,13)         177.3379         -DE/DX =    0.0                 !
 ! D13   D(1,11,12,14)          -2.7723         -DE/DX =    0.0                 !
 ! D14   D(15,11,12,13)          1.0455         -DE/DX =    0.0                 !
 ! D15   D(15,11,12,14)       -179.0647         -DE/DX =    0.0                 !
 ! D16   D(1,11,15,16)          65.6811         -DE/DX =    0.0                 !
 ! D17   D(1,11,15,17)        -173.4003         -DE/DX =    0.0                 !
 ! D18   D(1,11,15,18)         -52.3605         -DE/DX =    0.0                 !
 ! D19   D(12,11,15,16)       -117.8857         -DE/DX =    0.0                 !
 ! D20   D(12,11,15,17)          3.0328         -DE/DX =    0.0                 !
 ! D21   D(12,11,15,18)        124.0726         -DE/DX =    0.0                 !
 --------------------------------------------------------------------------------
 Iteration  1 RMS(Cart)=  0.12022583 RMS(Int)=  0.00539676
 Iteration  2 RMS(Cart)=  0.01405760 RMS(Int)=  0.00004251
 Iteration  3 RMS(Cart)=  0.00012743 RMS(Int)=  0.00000000
 Iteration  4 RMS(Cart)=  0.00000001 RMS(Int)=  0.00000000
 Iteration  1 RMS(Cart)=  0.00000000 RMS(Int)=  0.00000000
 GradGradGradGradGradGradGradGradGradGradGradGradGradGradGradGradGradGrad

                          Input orientation:                          
 ---------------------------------------------------------------------
 Center     Atomic      Atomic             Coordinates (Angstroms)
 Number     Number       Type             X           Y           Z
 ---------------------------------------------------------------------
      1          6           0        0.944165    1.388270   -0.125161
      2          1           0        0.870287    2.032851    0.744126
      3          1           0        1.325422    1.888131   -1.010095
      4          6           0       -1.961931   -1.142231   -0.116813
      5          1           0       -1.014266   -1.454355   -0.552339
      6          1           0       -2.236001   -1.811838    0.695387
      7          1           0       -2.738671   -1.134314   -0.879451
      8          8           0       -1.846650    0.144549    0.481859
      9          8           0       -1.540284    1.066093   -0.520702
     10          1           0       -0.331964    1.228111   -0.403000
     11          6           0        1.420217    0.040272    0.116189
     12          6           0        1.340743   -0.517884    1.338979
     13          1           0        1.654939   -1.536514    1.514315
     14          1           0        0.960916    0.039612    2.182354
     15          6           0        1.927602   -0.731589   -1.070023
     16          1           0        2.831214   -0.269609   -1.469345
     17          1           0        2.153306   -1.763728   -0.812722
     18          1           0        1.189197   -0.726986   -1.873445
 ---------------------------------------------------------------------
                    Distance matrix (angstroms):
                    1          2          3          4          5
     1  C    0.000000
     2  H    1.084713   0.000000
     3  H    1.085507   1.818071   0.000000
     4  C    3.853427   4.340947   4.559357   0.000000
     5  H    3.478283   4.170488   4.105593   1.088657   0.000000
     6  H    4.585569   4.942978   5.411300   1.087730   1.782485
     7  H    4.527214   5.068679   5.066467   1.088579   1.784097
     8  O    3.115118   3.319068   3.915105   1.423904   2.078203
     9  O    2.536284   2.888816   3.021179   2.284208   2.574948
    10  H    1.315808   1.846324   1.884441   2.890885   2.771906
    11  C    1.449819   2.160347   2.166123   3.590477   2.933862
    12  C    2.436063   2.661096   3.362632   3.662894   3.162297
    13  H    3.427455   3.734868   4.267250   3.987203   3.376754
    14  H    2.672786   2.459617   3.706969   3.902045   3.689421
    15  C    2.520658   3.471481   2.688707   4.025630   3.073267
    16  H    2.848921   3.747801   2.670986   5.056188   4.127012
    17  H    3.445266   4.299294   3.749724   4.219682   3.193277
    18  H    2.755149   3.817078   2.757312   3.631499   2.670137
                    6          7          8          9         10
     6  H    0.000000
     7  H    1.786570   0.000000
     8  O    2.006150   2.069869   0.000000
     9  O    3.200840   2.531131   1.395790   0.000000
    10  H    3.751413   3.405921   2.061882   1.224802   0.000000
    11  C    4.139288   4.434783   3.288922   3.197265   2.179601
    12  C    3.857670   4.684339   3.366444   3.777262   2.980090
    13  H    3.985707   5.019531   4.019088   4.596119   3.907305
    14  H    3.982362   4.943652   3.284071   3.823110   3.125400
    15  C    4.649645   4.687495   4.173839   3.944572   3.064471
    16  H    5.721992   5.667389   5.085384   4.668406   3.658681
    17  H    4.641414   4.932753   4.617046   4.662164   3.910951
    18  H    4.416761   4.072111   3.939974   3.534843   2.880719
                   11         12         13         14         15
    11  C    0.000000
    12  C    1.346502   0.000000
    13  H    2.120402   1.080310   0.000000
    14  H    2.116600   1.079978   1.847192   0.000000
    15  C    1.503432   2.488647   2.720487   3.479539   0.000000
[...]
    11  C   -0.022707   0.001752   0.001173  -0.001662   0.003147  -0.000172
    12  C   -0.017589  -0.001318  -0.000679  -0.001941   0.003594  -0.000069
    13  H   -0.000129   0.000017   0.000043  -0.000035   0.000121  -0.000009
    14  H   -0.000156  -0.000180  -0.000072   0.000006  -0.000041   0.000005
    15  C   -0.003118  -0.000169  -0.001507  -0.000072   0.000298   0.000018
    16  H    0.000936   0.000052   0.000110  -0.000030   0.000170  -0.000001
    17  H   -0.000018   0.000025   0.000036  -0.000058   0.000216  -0.000001
    18  H    0.001243  -0.000051   0.000237   0.000536  -0.002148   0.000012
               7          8          9         10         11         12
     1  C    0.000685   0.011463  -0.068236   0.055238  -0.022707  -0.017589
     2  H   -0.000020  -0.000619   0.002744   0.001520   0.001752  -0.001318
     3  H   -0.000041  -0.000391   0.002942   0.003059   0.001173  -0.000679
     4  C   -0.000899   0.001709  -0.003055   0.001780  -0.001662  -0.001941
     5  H   -0.001197  -0.002165   0.003686  -0.003533   0.003147   0.003594
     6  H    0.000722   0.000331  -0.000198   0.000118  -0.000172  -0.000069
     7  H    0.001078  -0.000309   0.000530   0.001208  -0.000373  -0.000308
     8  O   -0.000309   0.093237  -0.051325   0.010755  -0.002365  -0.007381
     9  O    0.000530  -0.051325   0.596229  -0.051005   0.008085   0.003596
    10  H    0.001208   0.010755  -0.051005  -0.100050   0.003182  -0.000006
    11  C   -0.000373  -0.002365   0.008085   0.003182  -0.250674   0.002033
    12  C   -0.000308  -0.007381   0.003596  -0.000006   0.002033   0.416742
    13  H   -0.000006  -0.000094   0.000028  -0.000032  -0.001017   0.005119
    14  H    0.000004   0.000168  -0.000139   0.000158  -0.000308   0.004617
    15  C   -0.000021  -0.000050   0.000109   0.000396   0.008051   0.000394
    16  H   -0.000007  -0.000024   0.000086   0.000028   0.004227  -0.000930
    17  H   -0.000010  -0.000029   0.000038  -0.000024   0.000706   0.000001
    18  H    0.000238   0.000351  -0.001142  -0.000582   0.005288  -0.000168
              13         14         15         16         17         18
     1  C   -0.000129  -0.000156  -0.003118   0.000936  -0.000018   0.001243
     2  H    0.000017  -0.000180  -0.000169   0.000052   0.000025  -0.000051
     3  H    0.000043  -0.000072  -0.001507   0.000110   0.000036   0.000237
     4  C   -0.000035   0.000006  -0.000072  -0.000030  -0.000058   0.000536
     5  H    0.000121  -0.000041   0.000298   0.000170   0.000216  -0.002148
     6  H   -0.000009   0.000005   0.000018  -0.000001  -0.000001   0.000012
     7  H   -0.000006   0.000004  -0.000021  -0.000007  -0.000010   0.000238
     8  O   -0.000094   0.000168  -0.000050  -0.000024  -0.000029   0.000351
     9  O    0.000028  -0.000139   0.000109   0.000086   0.000038  -0.001142
    10  H   -0.000032   0.000158   0.000396   0.000028  -0.000024  -0.000582
    11  C   -0.001017  -0.000308   0.008051   0.004227   0.000706   0.005288
    12  C    0.005119   0.004617   0.000394  -0.000930   0.000001  -0.000168
    13  H   -0.024925   0.002789   0.000163   0.000031  -0.000085  -0.000083
    14  H    0.002789  -0.022146  -0.000063  -0.000011   0.000000   0.000033
    15  C    0.000163  -0.000063   0.016180  -0.004736  -0.000788  -0.000643
    16  H    0.000031  -0.000011  -0.004736  -0.009301   0.000737   0.002139
    17  H   -0.000085   0.000000  -0.000788   0.000737  -0.001068  -0.000493
    18  H   -0.000083   0.000033  -0.000643   0.002139  -0.000493  -0.012578
 Mulliken charges and spin densities:
               1          2
     1  C   -0.290938   0.479420
     2  H    0.118781  -0.012673
     3  H    0.112580  -0.012716
     4  C   -0.064821  -0.007334
     5  H    0.070279   0.004503
     6  H    0.096225  -0.000844
     7  H    0.099842   0.001273
     8  O   -0.180112   0.053260
     9  O   -0.231922   0.442972
    10  H    0.211920  -0.077790
    11  C    0.088319  -0.241634
    12  C   -0.302536   0.405708
    13  H    0.125562  -0.018103
    14  H    0.126004  -0.015335
    15  C   -0.297745   0.014441
    16  H    0.115292  -0.006526
    17  H    0.102844  -0.000815
    18  H    0.100427  -0.007809
 Sum of Mulliken charges =  -0.00000   1.00000
 Mulliken charges and spin densities with hydrogens summed into heavy atoms:
               1          2
     1  C   -0.059577   0.454031
     4  C    0.201524  -0.002401
     8  O   -0.180112   0.053260
     9  O   -0.020002   0.365182
    11  C    0.088319  -0.241634
    12  C   -0.050970   0.372270
    15  C    0.020818  -0.000708
 Electronic spatial extent (au):  <R**2>=            992.0130
 Charge=              0.0000 electrons
 Dipole moment (field-independent basis, Debye):
    X=              1.6285    Y=              0.5835    Z=             -1.8786  Tot=              2.5537
 Quadrupole moment (field-independent basis, Debye-Ang):
   XX=            -46.7516   YY=            -43.6986   ZZ=            -43.2553
   XY=             -0.0536   XZ=              4.2730   YZ=              2.0095
 Traceless Quadrupole moment (field-independent basis, Debye-Ang):
   XX=             -2.1831   YY=              0.8699   ZZ=              1.3132
   XY=             -0.0536   XZ=              4.2730   YZ=              2.0095
 Octapole moment (field-independent basis, Debye-Ang**2):
  XXX=            -24.9275  YYY=             35.9185  ZZZ=            -11.6294  XYY=             -1.7987
  XXY=             11.9396  XXZ=            -15.4073  XZZ=             -1.5891  YZZ=              9.9669
  YYZ=             -5.3036  XYZ=             -2.7860
 Hexadecapole moment (field-independent basis, Debye-Ang**3):
 XXXX=           -725.7883 YYYY=           -280.5383 ZZZZ=           -303.0623 XXXY=            -49.2454
 XXXZ=             15.8082 YYYX=            -58.6991 YYYZ=              2.3387 ZZZX=             14.3156
 ZZZY=             -2.6540 XXYY=           -162.1956 XXZZ=           -170.9543 YYZZ=            -94.0599
 XXYZ=              5.6350 YYXZ=              8.8093 ZZXY=            -21.6787
 N-N= 3.154428058339D+02 E-N=-1.442079454405D+03  KE= 3.453336667414D+02
                          Isotropic Fermi Contact Couplings
        Atom                 a.u.       MegaHertz       Gauss      10(-4) cm-1
     1  C(13)              0.06158      69.22967      24.70287      23.09253
     2  H(1)              -0.00322     -14.41183      -5.14250      -4.80727
     3  H(1)              -0.00306     -13.68979      -4.88486      -4.56642
     4  C(13)             -0.00470      -5.28217      -1.88481      -1.76194
     5  H(1)               0.00207       9.26592       3.30631       3.09078
     6  H(1)              -0.00007      -0.29893      -0.10667      -0.09971
     7  H(1)               0.00061       2.70566       0.96545       0.90251
     8  O(17)              0.02380     -14.42518      -5.14726      -4.81172
     9  O(17)              0.03375     -20.45620      -7.29928      -6.82345
    10  H(1)              -0.01950     -87.15726     -31.09988     -29.07253
    11  C(13)             -0.01060     -11.91654      -4.25212      -3.97493
    12  C(13)              0.00569       6.39284       2.28112       2.13242
    13  H(1)              -0.00345     -15.41254      -5.49958      -5.14107
    14  H(1)              -0.00318     -14.21224      -5.07128      -4.74069
    15  C(13)              0.00057       0.64470       0.23005       0.21505
    16  H(1)              -0.00142      -6.36342      -2.27063      -2.12261
    17  H(1)              -0.00014      -0.60411      -0.21556      -0.20151
    18  H(1)              -0.00108      -4.82601      -1.72204      -1.60978
 --------------------------------------------------------
       Center         ----  Spin Dipole Couplings  ----
                      3XX-RR        3YY-RR        3ZZ-RR
 --------------------------------------------------------
     1   Atom        0.486134     -0.241603     -0.244532
     2   Atom       -0.000179     -0.010539      0.010718
     3   Atom        0.000352      0.031019     -0.031372
     4   Atom       -0.005279     -0.004698      0.009977
     5   Atom       -0.003293     -0.005090      0.008383
     6   Atom       -0.001965     -0.002491      0.004457
     7   Atom       -0.000556     -0.004375      0.004931
     8   Atom        0.571559     -0.289598     -0.281961
     9   Atom        1.772950     -0.884252     -0.888698
    10   Atom        0.172019     -0.078043     -0.093976
    11   Atom       -0.051097      0.030750      0.020347
    12   Atom        0.244583     -0.130846     -0.113737
    13   Atom        0.004073     -0.013571      0.009498
    14   Atom       -0.001563     -0.001009      0.002571
    15   Atom       -0.002949     -0.000031      0.002979
    16   Atom       -0.000583     -0.000265      0.000848
    17   Atom       -0.001370     -0.000845      0.002215
    18   Atom       -0.002620     -0.000976      0.003596
 --------------------------------------------------------
                        XY            XZ            YZ
 --------------------------------------------------------
     1   Atom        0.088102      0.097406      0.011285
     2   Atom        0.000930      0.009790     -0.026568
     3   Atom        0.003931      0.004878      0.008228
     4   Atom        0.000395      0.004470      0.002621
     5   Atom       -0.000869      0.000059     -0.000879
     6   Atom        0.001043      0.002216      0.004312
     7   Atom       -0.000081      0.006584      0.000486
     8   Atom        0.214017     -0.090670     -0.033811
     9   Atom        0.254224     -0.232760     -0.026960
    10   Atom        0.063608      0.030482      0.009449
    11   Atom       -0.027042     -0.045772      0.000479
    12   Atom        0.089806      0.114934      0.029784
    13   Atom       -0.002045     -0.007705      0.014784
    14   Atom        0.002572      0.001307     -0.015404
    15   Atom       -0.000227     -0.003419     -0.002077
    16   Atom        0.001353     -0.002708     -0.002479
    17   Atom        0.000541     -0.001644     -0.002688
    18   Atom        0.001100     -0.001429     -0.003655
 --------------------------------------------------------


 ---------------------------------------------------------------------------------
              Anisotropic Spin Dipole Couplings in Principal Axis System
 ---------------------------------------------------------------------------------

       Atom             a.u.   MegaHertz   Gauss  10(-4) cm-1        Axes

              Baa    -0.2573   -34.528   -12.320   -11.517 -0.1354  0.0485  0.9896
     1 C(13)  Bbb    -0.2521   -33.829   -12.071   -11.284 -0.1100  0.9919 -0.0636
              Bcc     0.5094    68.357    24.391    22.801  0.9847  0.1175  0.1290
 
              Baa    -0.0299   -15.948    -5.691    -5.320 -0.2128  0.7934  0.5704
     2 H(1)   Bbb    -0.0007    -0.387    -0.138    -0.129  0.9461  0.3131 -0.0825
              Bcc     0.0306    16.334     5.829     5.449  0.2441 -0.5221  0.8172
 
              Baa    -0.0330   -17.611    -6.284    -5.874 -0.1300 -0.1185  0.9844
     3 H(1)   Bbb     0.0003     0.150     0.054     0.050  0.9816 -0.1552  0.1109
              Bcc     0.0327    17.460     6.230     5.824  0.1397  0.9807  0.1365
 
              Baa    -0.0066    -0.880    -0.314    -0.293  0.9365  0.2038 -0.2855
     4 C(13)  Bbb    -0.0051    -0.679    -0.242    -0.226 -0.2398  0.9660 -0.0971
              Bcc     0.0116     1.559     0.556     0.520  0.2560  0.1594  0.9534
 
              Baa    -0.0055    -2.928    -1.045    -0.977  0.3665  0.9287  0.0573
     5 H(1)   Bbb    -0.0030    -1.576    -0.562    -0.526  0.9304 -0.3651 -0.0331
              Bcc     0.0084     4.504     1.607     1.502  0.0099 -0.0655  0.9978
 
              Baa    -0.0046    -2.430    -0.867    -0.811  0.0076  0.9013 -0.4331
     6 H(1)   Bbb    -0.0026    -1.399    -0.499    -0.467  0.9659 -0.1187 -0.2301
              Bcc     0.0072     3.829     1.366     1.277  0.2588  0.4166  0.8715
 
              Baa    -0.0051    -2.723    -0.972    -0.908  0.7475  0.4244 -0.5110
     7 H(1)   Bbb    -0.0042    -2.255    -0.805    -0.752 -0.3666  0.9051  0.2155
              Bcc     0.0093     4.978     1.776     1.661  0.5540  0.0262  0.8321
 
              Baa    -0.3428    24.801     8.850     8.273 -0.1999  0.9521  0.2314
     8 O(17)  Bbb    -0.2891    20.923     7.466     6.979  0.1524 -0.2030  0.9672
              Bcc     0.6319   -45.724   -16.315   -15.252  0.9679  0.2286 -0.1045
 
              Baa    -0.9135    66.102    23.587    22.049 -0.0020  0.6869  0.7267
     9 O(17)  Bbb    -0.9038    65.399    23.336    21.815 -0.1277  0.7206 -0.6815
              Bcc     1.8173  -131.501   -46.923   -43.864  0.9918  0.0942 -0.0862
 
              Baa    -0.0984   -52.490   -18.730   -17.509 -0.0119 -0.3904  0.9206
    10 H(1)   Bbb    -0.0925   -49.328   -17.601   -16.454 -0.2574  0.8908  0.3744
              Bcc     0.1908   101.818    36.331    33.963  0.9662  0.2325  0.1111
 
              Baa    -0.0788   -10.574    -3.773    -3.527  0.8867  0.2171  0.4083
    11 C(13)  Bbb     0.0269     3.615     1.290     1.206  0.0981  0.7746 -0.6249
              Bcc     0.0519     6.959     2.483     2.321 -0.4519  0.5941  0.6655
 
              Baa    -0.1534   -20.585    -7.345    -6.866 -0.0463  0.8586 -0.5106
    12 C(13)  Bbb    -0.1457   -19.549    -6.975    -6.521 -0.3469  0.4655  0.8142
              Bcc     0.2991    40.133    14.321    13.387  0.9368  0.2148  0.2763
 
              Baa    -0.0209   -11.145    -3.977    -3.718 -0.0659  0.8906 -0.4500
    13 H(1)   Bbb     0.0004     0.229     0.082     0.076  0.8995  0.2482  0.3595
              Bcc     0.0205    10.917     3.895     3.641 -0.4319  0.3811  0.8175
 
              Baa    -0.0153    -8.160    -2.912    -2.722 -0.1993  0.7349  0.6482
    14 H(1)   Bbb    -0.0010    -0.547    -0.195    -0.183  0.9790  0.1213  0.1636
              Bcc     0.0163     8.708     3.107     2.905 -0.0416 -0.6673  0.7437
 
              Baa    -0.0048    -0.640    -0.228    -0.214  0.8640  0.2362  0.4446
    15 C(13)  Bbb    -0.0004    -0.054    -0.019    -0.018 -0.3540  0.9130  0.2028
              Bcc     0.0052     0.694     0.248     0.232 -0.3580 -0.3326  0.8725
 
              Baa    -0.0028    -1.509    -0.538    -0.503  0.6352  0.3368  0.6950
    16 H(1)   Bbb    -0.0017    -0.922    -0.329    -0.308 -0.5862  0.7961  0.1500
              Bcc     0.0046     2.431     0.868     0.811 -0.5028 -0.5027  0.7032
 
              Baa    -0.0026    -1.375    -0.491    -0.459  0.4251  0.7194  0.5493
    17 H(1)   Bbb    -0.0017    -0.912    -0.325    -0.304  0.8582 -0.5132  0.0080
              Bcc     0.0043     2.287     0.816     0.763 -0.2876 -0.4680  0.8356
 
              Baa    -0.0033    -1.739    -0.621    -0.580 -0.6853  0.6922  0.2262
    18 H(1)   Bbb    -0.0027    -1.457    -0.520    -0.486  0.6994  0.5390  0.4693
              Bcc     0.0060     3.197     1.141     1.066 -0.2029 -0.4799  0.8535
 

 ---------------------------------------------------------------------------------

 1\1\GINC-N183\Scan\UB2PLYPD3-FC\CC-pVTZ\C5H11O2(2)\ROOT\18-Jun-2019\0\
 \# opt=(calcfc,ts,noeigentest,maxcyc=500,modredundant) uB2PLYPD3/cc-pv
 tz scf=maxcyc=500 nosymm\\Title Card Required\\0,2\C,0.8958039279,0.47
 56906893,1.3667468303\H,1.0898580884,-0.1086521642,2.2597717883\H,0.97
 89066852,1.5474186149,1.5178043154\C,-1.8699921731,-0.8991138898,-0.93
 75808755\H,-1.1242736292,-0.2370105148,-1.3742790737\H,-1.8656673831,-
 1.8560140378,-1.4547606395\H,-2.8558695901,-0.4413139237,-0.9965194909
 \O,-1.5487863523,-1.2037680623,0.4157638717\O,-1.5826814569,-0.0169893
 892,1.1496872619\H,-0.4019552418,0.293357322,1.2491231519\C,1.43522202
 82,-0.0502492879,0.1280426224\C,1.7440808757,-1.3547251216,0.001403160
 7\H,2.106093809,-1.759413227,-0.9325360454\H,1.6399118822,-2.035339270
 5,0.8334278485\C,1.5561090901,0.9031319047,-1.028131758\H,2.2871991429
 ,1.6817324647,-0.8074796543\H,1.8594305191,0.3943304967,-1.9400399398\
 H,0.6048507777,1.4057683967,-1.2103323739\\Version=ES64L-G16RevB.01\HF
 =-346.8173767,-346.8175384,-346.8176124,-346.817607,-346.8175349,-346.
 817441,-346.8173368,-346.8172218,-346.817099,-346.8169807,-346.8168857
 ,-346.8168361,-346.8168412,-346.8169,-346.8170043,-346.8171407,-346.81
 72908,-346.8174316,-346.8175353,-346.8175832,-346.8175654,-346.8174986
 ,-346.8174048,-346.8173106,-346.8172288,-346.8171404,-346.817043,-346.
 8169492,-346.816882,-346.8168427,-346.8167817,-346.816716,-346.8166668
 ,-346.8166637,-346.8168305,-346.81711,-346.8173724\MP2=-347.2594886,-3
 47.2593688,-347.2590583,-347.2586794,-347.2583502,-347.2580928,-347.25
 78846,-347.2576919,-347.2575012,-347.257312,-347.2571478,-347.2570375,
 -347.2570039,-347.2570498,-347.257165,-347.2573326,-347.257529,-347.25
 77247,-347.2578867,-347.2579866,-347.2580137,-347.2579798,-347.2579141
 ,-347.2578516,-347.257797,-347.2577363,-347.2576726,-347.2576329,-347.
 2576588,-347.2577764,-347.2579784,-347.2582127,-347.2584431,-347.25873
 63,-347.2590959,-347.2593833,-347.259489\PUHF=-346.8273907,-346.827435
 1,-346.8273899,-346.8272906,-346.8271609,-346.8270492,-346.8269458,-34
 6.8268467,-346.826756,-346.8266795,-346.8266247,-346.8266086,-346.8266
 362,-346.8267076,-346.8268172,-346.8269527,-346.8271,-346.8272402,-346
 .8273408,-346.8273826,-346.8273516,-346.8272616,-346.8271347,-346.8270
 007,-346.8268855,-346.8267822,-346.8266923,-346.8266342,-346.826643,-3
 46.8267328,-346.8268386,-346.826924,-346.8269769,-346.8269736,-346.827
 0504,-346.8272289,-346.8273859\PMP2-0=-347.261001,-347.2608555,-347.26
 05195,-347.2601206,-347.2597796,-347.2595187,-347.2593107,-347.2591213
 ,-347.258937,-347.2587563,-347.2586003,-347.2584967,-347.2584675,-347.
 2585157,-347.2586314,-347.2587981,-347.2589929,-347.2591875,-347.25934
 81,-347.2594461,-347.2594703,-347.259432,-347.2593603,-347.259291,-347
 .2592313,-347.2591696,-347.2591093,-347.2590785,-347.2591214,-347.2592
 671,-347.2595054,-347.2597715,-347.2600226,-347.2603159,-347.2606557,-
 347.2609197,-347.2610014\S2=0.813255,0.811486,0.809749,0.808437,0.8076
 82,0.807461,0.807474,0.807666,0.808047,0.808547,0.809031,0.809431,0.80
 9699,0.809849,0.809903,0.809875,0.809813,0.809775,0.809707,0.809616,0.
 809454,0.809194,0.808832,0.808406,0.808077,0.807981,0.808149,0.808648,
 0.809648,0.811365,0.813667,0.815769,0.817251,0.817477,0.816367,0.81488
 6,0.813253\S2-1=0.756541,0.755987,0.755469,0.755083,0.754866,0.754809,
 0.754815,0.754868,0.754976,0.75512,0.755263,0.755379,0.755451,0.755483
 ,0.755476,0.755437,0.755379,0.755331,0.755279,0.755231,0.755174,0.7551
 07,0.755029,0.754953,0.754925,0.754972,0.75509,0.755293,0.755641,0.756
 212,0.756972,0.757624,0.75805,0.75808,0.757655,0.757104,0.756542\S2A=0
 .751843,0.751786,0.751731,0.751692,0.751671,0.751669,0.751672,0.751679
 ,0.751691,0.751707,0.751722,0.751734,0.751742,0.751745,0.751746,0.7517
 44,0.751741,0.751739,0.751736,0.751732,0.751726,0.751715,0.751701,0.75
 1683,0.75167,0.751665,0.751671,0.75169,0.751726,0.751784,0.75186,0.751
 927,0.751975,0.751983,0.751946,0.751897,0.751843\RMSD=7.688e-09,6.072e
 -09,6.368e-09,8.413e-09,6.488e-09,4.832e-09,8.727e-09,4.800e-09,4.497e
 -09,6.319e-09,8.721e-09,7.848e-09,7.536e-09,9.662e-09,4.547e-09,6.215e
 -09,6.582e-09,5.838e-09,8.109e-09,7.425e-09,8.649e-09,5.921e-09,5.208e
 -09,7.394e-09,8.454e-09,8.697e-09,7.870e-09,3.709e-09,4.701e-09,7.610e
 -09,3.642e-09,5.617e-09,4.784e-09,8.929e-09,9.069e-09,9.334e-09,9.342e
 -09\PG=C01 [X(C5H11O2)]\\@


    THE DOUGHNUT CREED
 AS YOU RAMBLE ON THROUGH LIFE, BROTHER
 WHATEVER BE YOUR GOAL
 KEEP YOUR EYE UPON THE DOUGHNUT
 AND NOT UPON THE HOLE.
 Job cpu time:      29 days  3 hours 48 minutes 22.7 seconds.
 Elapsed time:       1 days  1 hours 10 minutes 44.8 seconds.
 File lengths (MBytes):  RWF= 108514 Int=      0 D2E=      0 Chk=     23 Scr=      1
 Normal termination of Gaussian 16 at Tue Jun 18 11:04:54 2019.
