 Entering Gaussian System, Link 0=g16
 Initial command:
 /ichec/packages/gaussian/16b01/l1.exe "/localscratch/353445/Gau-77146.inp" -scrdir="/localscratch/353445/"
 Entering Link 1 = /ichec/packages/gaussian/16b01/l1.exe PID=     77162.
  
 Copyright (c) 1988-2017, Gaussian, Inc.  All Rights Reserved.
  
 This is part of the Gaussian(R) 16 program.  It is based on
 the Gaussian(R) 09 system (copyright 2009, Gaussian, Inc.),
 the Gaussian(R) 03 system (copyright 2003, Gaussian, Inc.),
 the Gaussian(R) 98 system (copyright 1998, Gaussian, Inc.),
 the Gaussian(R) 94 system (copyright 1995, Gaussian, Inc.),
 the Gaussian 92(TM) system (copyright 1992, Gaussian, Inc.),
 the Gaussian 90(TM) system (copyright 1990, Gaussian, Inc.),
 the Gaussian 88(TM) system (copyright 1988, Gaussian, Inc.),
 the Gaussian 86(TM) system (copyright 1986, Carnegie Mellon
 University), and the Gaussian 82(TM) system (copyright 1983,
 Carnegie Mellon University). Gaussian is a federally registered
 trademark of Gaussian, Inc.
  
 This software contains proprietary and confidential information,
 including trade secrets, belonging to Gaussian, Inc.
  
 This software is provided under written license and may be
 used, copied, transmitted, or stored only in accord with that
 written license.
  
 The following legend is applicable only to US Government
 contracts under FAR:
  
                    RESTRICTED RIGHTS LEGEND
  
 Use, reproduction and disclosure by the US Government is
 subject to restrictions as set forth in subparagraphs (a)
 and (c) of the Commercial Computer Software - Restricted
 Rights clause in FAR 52.227-19.
  
 Gaussian, Inc.
 340 Quinnipiac St., Bldg. 40, Wallingford CT 06492
  
  
 ---------------------------------------------------------------
 Warning -- This program may not be used in any manner that
 competes with the business of Gaussian, Inc. or will provide
 assistance to any competitor of Gaussian, Inc.  The licensee
 of this program is prohibited from giving any competitor of
 Gaussian, Inc. access to this program.  By using this program,
 the user acknowledges that Gaussian, Inc. is engaged in the
 business of creating and licensing software in the field of
 computational chemistry and represents and warrants to the
 licensee that it is not a competitor of Gaussian, Inc. and that
 it will not use this program in any manner prohibited above.
 ---------------------------------------------------------------
  

 Cite this work as:
 Gaussian 16, Revision B.01,
 M. J. Frisch, G. W. Trucks, H. B. Schlegel, G. E. Scuseria, 
 M. A. Robb, J. R. Cheeseman, G. Scalmani, V. Barone, 
 G. A. Petersson, H. Nakatsuji, X. Li, M. Caricato, A. V. Marenich, 
 J. Bloino, B. G. Janesko, R. Gomperts, B. Mennucci, H. P. Hratchian, 
 J. V. Ortiz, A. F. Izmaylov, J. L. Sonnenberg, D. Williams-Young, 
 F. Ding, F. Lipparini, F. Egidi, J. Goings, B. Peng, A. Petrone, 
 T. Henderson, D. Ranasinghe, V. G. Zakrzewski, J. Gao, N. Rega, 
 G. Zheng, W. Liang, M. Hada, M. Ehara, K. Toyota, R. Fukuda, 
 J. Hasegawa, M. Ishida, T. Nakajima, Y. Honda, O. Kitao, H. Nakai, 
 T. Vreven, K. Throssell, J. A. Montgomery, Jr., J. E. Peralta, 
 F. Ogliaro, M. J. Bearpark, J. J. Heyd, E. N. Brothers, K. N. Kudin, 
 V. N. Staroverov, T. A. Keith, R. Kobayashi, J. Normand, 
 K. Raghavachari, A. P. Rendell, J. C. Burant, S. S. Iyengar, 
 J. Tomasi, M. Cossi, J. M. Millam, M. Klene, C. Adamo, R. Cammi, 
 J. W. Ochterski, R. L. Martin, K. Morokuma, O. Farkas, 
 J. B. Foresman, and D. J. Fox, Gaussian, Inc., Wallingford CT, 2016.
 
 ******************************************
 Gaussian 16:  ES64L-G16RevB.01 20-Dec-2017
                24-Jun-2019 
 ******************************************
 %mem=80GB
 %nproc=40
 Will use up to   40 processors via shared memory.
 ----------------------------------------------------------------------
 # opt=(calcfc,ts,noeigentest,maxcyc=500) freq=noraman uB2PLYPD3/cc-pvt
 z
 ----------------------------------------------------------------------
 1/5=1,6=500,10=4,11=1,18=20,38=1/1,3;
 2/9=110,12=2,17=6,18=5,40=1/2;
 3/5=16,6=1,11=2,25=1,30=1,71=2,74=-60,116=2,140=1/1,2,3;
 4//1;
 5/5=2,38=5/2;
 8/6=3,8=1,10=1,19=11,30=-1/1;
 9/15=3,16=-3/6;
 11/6=1,8=1,15=11,17=12,24=-1,27=1,28=-2,29=300,32=6,42=3/1,2,10;
 10/6=2,21=1/2;
 8/6=4,8=1,10=1,19=11,30=-1/11,4;
 10/5=1,20=4/2;
 11/12=2,14=11,16=1,17=2,28=-2,42=3,76=2/2,10,12;
 6/7=2,8=2,9=2,10=2/1;
 7/10=1,12=2,25=1,44=2/1,2,3,16;
 1/5=1,6=500,10=4,11=1,18=20/3(2);
 2/9=110/2;
 99//99;
 2/9=110/2;
 3/5=16,6=1,11=2,25=1,30=1,71=1,74=-60,116=2/1,2,3;
 4/5=5,16=3,69=1/1;
 5/5=2,38=5/2;
 8/6=4,10=1/1;
 9/15=2,16=-3/6;
 10/5=1/2;
 7/12=2/1,2,3,16;
 1/5=1,6=500,11=1,18=20/3(-8);
 2/9=110/2;
 6/7=2,8=2,9=2,10=2/1;
 99/9=10/99;
 -------------------
 Title Card Required
 -------------------
 Symbolic Z-matrix:
 Charge =  0 Multiplicity = 2
 C                    -1.40187   0.04635  -0.05017 
 H                    -0.72054  -0.56426  -0.64854 
 C                    -0.69787   0.40944   1.22837 
 H                    -1.15349   1.20607   1.81253 
 H                    -0.3545   -0.42016   1.84034 
 C                     2.71484  -0.40296   0.01451 
 H                     2.1979   -0.98267   0.78108 
 H                     3.0514   -1.06148  -0.78365 
 H                     3.56195   0.1195    0.45549 
 O                     1.82901   0.51598  -0.60808 
 O                     1.43173   1.45699   0.36493 
 H                     0.46468   0.99619   0.82192 
 C                    -2.64725  -0.80052   0.25567 
 H                    -3.36053  -0.23239   0.85374 
 H                    -3.14202  -1.09386  -0.67046 
 H                    -2.38992  -1.7052    0.80516 
 C                    -1.7664    1.2897   -0.8576 
 H                    -0.88001   1.87703  -1.08814 
 H                    -2.25132   1.01629  -1.79399 
 H                    -2.45707   1.92071  -0.29514 
 
 Add virtual bond connecting atoms H12        and O11        Dist= 2.20D+00.
 Add virtual bond connecting atoms H12        and C3         Dist= 2.58D+00.

 GradGradGradGradGradGradGradGradGradGradGradGradGradGradGradGradGradGrad
 Berny optimization.
 Initialization pass.
                           ----------------------------
                           !    Initial Parameters    !
                           ! (Angstroms and Degrees)  !
 --------------------------                            --------------------------
 ! Name  Definition              Value          Derivative Info.                !
 --------------------------------------------------------------------------------
 ! R1    R(1,2)                  1.0932         calculate D2E/DX2 analytically  !
 ! R2    R(1,3)                  1.504          calculate D2E/DX2 analytically  !
 ! R3    R(1,13)                 1.5368         calculate D2E/DX2 analytically  !
 ! R4    R(1,17)                 1.5267         calculate D2E/DX2 analytically  !
 ! R5    R(3,4)                  1.0879         calculate D2E/DX2 analytically  !
 ! R6    R(3,5)                  1.0866         calculate D2E/DX2 analytically  !
 ! R7    R(3,12)                 1.3642         calculate D2E/DX2 analytically  !
 ! R8    R(6,7)                  1.0913         calculate D2E/DX2 analytically  !
 ! R9    R(6,8)                  1.0881         calculate D2E/DX2 analytically  !
 ! R10   R(6,9)                  1.0886         calculate D2E/DX2 analytically  !
 ! R11   R(6,10)                 1.4201         calculate D2E/DX2 analytically  !
 ! R12   R(10,11)                1.4107         calculate D2E/DX2 analytically  !
 ! R13   R(11,12)                1.1646         calculate D2E/DX2 analytically  !
 ! R14   R(13,14)                1.0905         calculate D2E/DX2 analytically  !
 ! R15   R(13,15)                1.0902         calculate D2E/DX2 analytically  !
 ! R16   R(13,16)                1.0893         calculate D2E/DX2 analytically  !
 ! R17   R(17,18)                1.088          calculate D2E/DX2 analytically  !
 ! R18   R(17,19)                1.0894         calculate D2E/DX2 analytically  !
 ! R19   R(17,20)                1.0916         calculate D2E/DX2 analytically  !
 ! A1    A(2,1,3)              107.9639         calculate D2E/DX2 analytically  !
 ! A2    A(2,1,13)             107.8295         calculate D2E/DX2 analytically  !
 ! A3    A(2,1,17)             108.3134         calculate D2E/DX2 analytically  !
 ! A4    A(3,1,13)             110.0709         calculate D2E/DX2 analytically  !
 ! A5    A(3,1,17)             111.3921         calculate D2E/DX2 analytically  !
 ! A6    A(13,1,17)            111.1338         calculate D2E/DX2 analytically  !
 ! A7    A(1,3,4)              115.9262         calculate D2E/DX2 analytically  !
 ! A8    A(1,3,5)              116.2552         calculate D2E/DX2 analytically  !
 ! A9    A(1,3,12)             104.445          calculate D2E/DX2 analytically  !
 ! A10   A(4,3,5)              112.8937         calculate D2E/DX2 analytically  !
 ! A11   A(4,3,12)             101.6506         calculate D2E/DX2 analytically  !
 ! A12   A(5,3,12)             103.114          calculate D2E/DX2 analytically  !
 ! A13   A(7,6,8)              109.8944         calculate D2E/DX2 analytically  !
 ! A14   A(7,6,9)              109.8164         calculate D2E/DX2 analytically  !
 ! A15   A(7,6,10)             110.8679         calculate D2E/DX2 analytically  !
 ! A16   A(8,6,9)              110.2988         calculate D2E/DX2 analytically  !
 ! A17   A(8,6,10)             105.2463         calculate D2E/DX2 analytically  !
 ! A18   A(9,6,10)             110.6365         calculate D2E/DX2 analytically  !
 ! A19   A(6,10,11)            107.7538         calculate D2E/DX2 analytically  !
 ! A20   A(10,11,12)           103.9197         calculate D2E/DX2 analytically  !
 ! A21   A(1,13,14)            110.616          calculate D2E/DX2 analytically  !
 ! A22   A(1,13,15)            110.3039         calculate D2E/DX2 analytically  !
 ! A23   A(1,13,16)            111.5071         calculate D2E/DX2 analytically  !
 ! A24   A(14,13,15)           108.0123         calculate D2E/DX2 analytically  !
 ! A25   A(14,13,16)           108.091          calculate D2E/DX2 analytically  !
 ! A26   A(15,13,16)           108.1958         calculate D2E/DX2 analytically  !
 ! A27   A(1,17,18)            110.9261         calculate D2E/DX2 analytically  !
 ! A28   A(1,17,19)            110.8853         calculate D2E/DX2 analytically  !
 ! A29   A(1,17,20)            110.4476         calculate D2E/DX2 analytically  !
 ! A30   A(18,17,19)           108.4208         calculate D2E/DX2 analytically  !
 ! A31   A(18,17,20)           108.2156         calculate D2E/DX2 analytically  !
 ! A32   A(19,17,20)           107.8396         calculate D2E/DX2 analytically  !
 ! A33   L(3,12,11,7,-1)       179.2316         calculate D2E/DX2 analytically  !
 ! A34   L(3,12,11,7,-2)       173.9623         calculate D2E/DX2 analytically  !
 ! D1    D(2,1,3,4)            165.73           calculate D2E/DX2 analytically  !
 ! D2    D(2,1,3,5)            -58.0413         calculate D2E/DX2 analytically  !
 ! D3    D(2,1,3,12)            54.808          calculate D2E/DX2 analytically  !
 ! D4    D(13,1,3,4)           -76.8086         calculate D2E/DX2 analytically  !
 ! D5    D(13,1,3,5)            59.4201         calculate D2E/DX2 analytically  !
 ! D6    D(13,1,3,12)          172.2693         calculate D2E/DX2 analytically  !
 ! D7    D(17,1,3,4)            46.9291         calculate D2E/DX2 analytically  !
 ! D8    D(17,1,3,5)          -176.8422         calculate D2E/DX2 analytically  !
 ! D9    D(17,1,3,12)          -63.9929         calculate D2E/DX2 analytically  !
 ! D10   D(2,1,13,14)          179.9917         calculate D2E/DX2 analytically  !
 ! D11   D(2,1,13,15)          -60.5721         calculate D2E/DX2 analytically  !
 ! D12   D(2,1,13,16)           59.6708         calculate D2E/DX2 analytically  !
 ! D13   D(3,1,13,14)           62.447          calculate D2E/DX2 analytically  !
 ! D14   D(3,1,13,15)         -178.1168         calculate D2E/DX2 analytically  !
 ! D15   D(3,1,13,16)          -57.8739         calculate D2E/DX2 analytically  !
 ! D16   D(17,1,13,14)         -61.4408         calculate D2E/DX2 analytically  !
 ! D17   D(17,1,13,15)          57.9953         calculate D2E/DX2 analytically  !
 ! D18   D(17,1,13,16)         178.2382         calculate D2E/DX2 analytically  !
 ! D19   D(2,1,17,18)          -60.6647         calculate D2E/DX2 analytically  !
 ! D20   D(2,1,17,19)           59.8664         calculate D2E/DX2 analytically  !
 ! D21   D(2,1,17,20)          179.3524         calculate D2E/DX2 analytically  !
 ! D22   D(3,1,17,18)           57.927          calculate D2E/DX2 analytically  !
 ! D23   D(3,1,17,19)          178.4581         calculate D2E/DX2 analytically  !
 ! D24   D(3,1,17,20)          -62.0559         calculate D2E/DX2 analytically  !
 ! D25   D(13,1,17,18)        -178.9404         calculate D2E/DX2 analytically  !
 ! D26   D(13,1,17,19)         -58.4094         calculate D2E/DX2 analytically  !
 ! D27   D(13,1,17,20)          61.0766         calculate D2E/DX2 analytically  !
 ! D28   D(1,3,11,10)          -46.9116         calculate D2E/DX2 analytically  !
 ! D29   D(4,3,11,10)         -167.5253         calculate D2E/DX2 analytically  !
 ! D30   D(5,3,11,10)           74.2887         calculate D2E/DX2 analytically  !
 ! D31   D(7,6,10,11)           65.2781         calculate D2E/DX2 analytically  !
 ! D32   D(8,6,10,11)         -175.9471         calculate D2E/DX2 analytically  !
 ! D33   D(9,6,10,11)          -56.8119         calculate D2E/DX2 analytically  !
 ! D34   D(6,10,11,12)         -91.0253         calculate D2E/DX2 analytically  !
 --------------------------------------------------------------------------------
 Trust Radius=3.00D-01 FncErr=1.00D-07 GrdErr=1.00D-07 EigMax=2.50D+02 EigMin=1.00D-04
 Number of steps in this run=    120 maximum allowed number of steps=    120.
 Search for a saddle point of order  1.
 GradGradGradGradGradGradGradGradGradGradGradGradGradGradGradGradGradGrad

                          Input orientation:                          
 ---------------------------------------------------------------------
 Center     Atomic      Atomic             Coordinates (Angstroms)
 Number     Number       Type             X           Y           Z
 ---------------------------------------------------------------------
      1          6           0       -1.401865    0.046354   -0.050165
      2          1           0       -0.720543   -0.564255   -0.648544
      3          6           0       -0.697868    0.409440    1.228370
      4          1           0       -1.153491    1.206067    1.812533
      5          1           0       -0.354496   -0.420160    1.840335
      6          6           0        2.714840   -0.402958    0.014505
      7          1           0        2.197898   -0.982670    0.781084
      8          1           0        3.051396   -1.061484   -0.783654
      9          1           0        3.561953    0.119497    0.455488
     10          8           0        1.829011    0.515975   -0.608077
     11          8           0        1.431729    1.456991    0.364925
     12          1           0        0.464675    0.996190    0.821923
     13          6           0       -2.647247   -0.800522    0.255665
     14          1           0       -3.360532   -0.232394    0.853742
     15          1           0       -3.142023   -1.093862   -0.670461
     16          1           0       -2.389920   -1.705199    0.805157
     17          6           0       -1.766404    1.289703   -0.857600
     18          1           0       -0.880012    1.877030   -1.088135
     19          1           0       -2.251317    1.016291   -1.793992
     20          1           0       -2.457070    1.920714   -0.295141
 ---------------------------------------------------------------------
                    Distance matrix (angstroms):
                    1          2          3          4          5
     1  C    0.000000
     2  H    1.093206   0.000000
     3  C    1.504026   2.114569   0.000000
     4  H    2.208227   3.062415   1.087866   0.000000
     5  H    2.211020   2.519776   1.086573   1.812120   0.000000
     6  C    4.141657   3.502500   3.712147   4.559150   3.571383
     7  H    3.835122   3.276615   3.243994   4.133554   2.820132
     8  H    4.647241   3.806969   4.502093   5.437191   4.347035
     9  H    4.990042   4.475062   4.339065   5.025696   4.188986
    10  O    3.312155   2.769253   3.125541   3.902678   3.411565
    11  O    3.192405   3.121671   2.525487   2.973532   2.981800
    12  H    2.268633   2.449899   1.364178   1.908879   1.927239
    13  C    1.536785   2.141402   2.492036   2.946446   2.812928
    14  H    2.175115   3.055575   2.764431   2.803476   3.169365
    15  H    2.170947   2.478816   3.440839   3.925454   3.811598
    16  H    2.185353   2.490345   2.741140   3.319493   2.620280
    17  C    1.526682   2.138852   2.503578   2.740852   3.492273
    18  H    2.168199   2.485668   2.748307   2.989792   3.758881
    19  H    2.168704   2.480614   3.451977   3.774687   4.343922
    20  H    2.164878   3.052129   2.774856   2.579211   3.802731
                    6          7          8          9         10
     6  C    0.000000
     7  H    1.091301   0.000000
     8  H    1.088110   1.784118   0.000000
     9  H    1.088589   1.783657   1.786297   0.000000
    10  O    1.420119   2.076483   2.003355   2.071582   0.000000
    11  O    2.286608   2.590782   3.207066   2.516932   1.410701
    12  H    2.769979   2.630897   3.674646   3.239752   2.033942
    13  C    5.382211   4.876953   5.798519   6.280169   4.745113
    14  H    6.135434   5.609308   6.669429   6.942855   5.443191
    15  H    5.937118   5.534808   6.194538   6.905309   5.225576
    16  H    5.327245   4.644427   5.704964   6.235108   4.972949
    17  C    4.869006   4.854344   5.361413   5.611147   3.686180
    18  H    4.397399   4.598412   4.917676   5.020234   3.069484
    19  H    5.472444   5.515648   5.784176   6.297500   4.278526
    20  H    5.678379   5.590763   6.282941   6.327437   4.521251
                   11         12         13         14         15
    11  O    0.000000
    12  H    1.164636   0.000000
    13  C    4.663298   3.637703   0.000000
    14  H    5.104775   4.017790   1.090523   0.000000
    15  H    5.338360   4.427618   1.090211   1.764389   0.000000
    16  H    4.979784   3.930203   1.089311   1.764540   1.765458
    17  C    3.427916   2.807964   2.526714   2.790469   2.758393
    18  H    2.762601   2.496474   3.478247   3.791245   3.757305
    19  H    4.291849   3.770945   2.767429   3.130506   2.551161
    20  H    3.971585   3.261774   2.782927   2.602316   3.114112
                   16         17         18         19         20
    16  H    0.000000
    17  C    3.481806   0.000000
    18  H    4.323973   1.088021   0.000000
    19  H    3.765806   1.089369   1.766234   0.000000
    20  H    3.789777   1.091583   1.765746   1.762631   0.000000
 Stoichiometry    C5H13O2(2)
 Framework group  C1[X(C5H13O2)]
 Deg. of freedom    54
 Full point group                 C1      NOp   1
 Largest Abelian subgroup         C1      NOp   1
 Largest concise Abelian subgroup C1      NOp   1
                         Standard orientation:                         
 ---------------------------------------------------------------------
 Center     Atomic      Atomic             Coordinates (Angstroms)
 Number     Number       Type             X           Y           Z
 ---------------------------------------------------------------------
      1          6           0       -1.344765   -0.146276   -0.207657
      2          1           0       -0.692025   -0.488623   -1.015017
      3          6           0       -0.635907   -0.388971    1.096458
      4          1           0       -1.052747    0.115537    1.965462
      5          1           0       -0.346367   -1.415823    1.302330
      6          6           0        2.739365   -0.809460   -0.390407
      7          1           0        2.182245   -1.626288    0.071489
      8          1           0        3.047455   -1.092849   -1.394775
      9          1           0        3.609397   -0.566340    0.217014
     10          8           0        1.913370    0.332987   -0.561545
     11          8           0        1.558503    0.803147    0.720288
     12          1           0        0.562125    0.248257    0.956308
     13          6           0       -2.638930   -0.972958   -0.266296
     14          1           0       -3.325955   -0.667251    0.523503
     15          1           0       -3.138950   -0.825521   -1.223795
     16          1           0       -2.438798   -2.037102   -0.147366
     17          6           0       -1.630096    1.338619   -0.418443
     18          1           0       -0.709702    1.918367   -0.394830
     19          1           0       -2.119039    1.507868   -1.377096
     20          1           0       -2.290621    1.714970    0.364897
 ---------------------------------------------------------------------
 Rotational constants (GHZ):           4.1382655           1.1420282           1.0720949
 Standard basis: CC-pVTZ (5D, 7F)
 There are   440 symmetry adapted cartesian basis functions of A   symmetry.
 There are   392 symmetry adapted basis functions of A   symmetry.
   392 basis functions,   585 primitive gaussians,   440 cartesian basis functions
    30 alpha electrons       29 beta electrons
       nuclear repulsion energy       327.9304144541 Hartrees.
 NAtoms=   20 NActive=   20 NUniq=   20 SFac= 1.00D+00 NAtFMM=   60 NAOKFM=F Big=F
 Integral buffers will be    131072 words long.
 Raffenetti 2 integral format.
 Two-electron integral symmetry is turned on.
 Nuclear repulsion after empirical dispersion term =      327.9197039217 Hartrees.
 One-electron integrals computed using PRISM.
 NBasis=   392 RedAO= T EigKep=  6.95D-04  NBF=   392
 NBsUse=   392 1.00D-06 EigRej= -1.00D+00 NBFU=   392
 ExpMin= 1.03D-01 ExpMax= 1.53D+04 ExpMxC= 5.22D+02 IAcc=3 IRadAn=         5 AccDes= 0.00D+00
 Harris functional with IExCor=  419 and IRadAn=       5 diagonalized for initial guess.
 HarFok:  IExCor=  419 AccDes= 0.00D+00 IRadAn=         5 IDoV= 1 UseB2=F ITyADJ=14
 ICtDFT=  3500011 ScaDFX=  1.000000  1.000000  1.000000  1.000000
 FoFCou: FMM=F IPFlag=           0 FMFlag=      100000 FMFlg1=           0
         NFxFlg=           0 DoJE=T BraDBF=F KetDBF=T FulRan=T
         wScrn=  0.000000 ICntrl=       500 IOpCl=  0 I1Cent=   200000004 NGrid=           0
         NMat0=    1 NMatS0=      1 NMatT0=    0 NMatD0=    1 NMtDS0=    0 NMtDT0=    0
 Petite list used in FoFCou.
 Initial guess <Sx>= 0.0000 <Sy>= 0.0000 <Sz>= 0.5000 <S**2>= 0.7500 S= 0.5000
 Requested convergence on RMS density matrix=1.00D-08 within 128 cycles.
 Requested convergence on MAX density matrix=1.00D-06.
 Requested convergence on             energy=1.00D-06.
 No special actions if energy rises.
 Integral accuracy reduced to 1.0D-05 until final iterations.
 Initial convergence to 1.0D-05 achieved.  Increase integral accuracy.
 SCF Done:  E(UB2PLYPD3) =  -348.025880474     A.U. after   19 cycles
            NFock= 19  Conv=0.33D-08     -V/T= 2.0044
 <Sx>= 0.0000 <Sy>= 0.0000 <Sz>= 0.5000 <S**2>= 0.7681 S= 0.5090
 <L.S>=  0.00000000000    
 Annihilation of the first spin contaminant:
 S**2 before annihilation     0.7681,   after     0.7501
 DoSCS=T DFT=T ScalE2(SS,OS)=  0.270000  0.270000
 ExpMin= 1.03D-01 ExpMax= 1.53D+04 ExpMxC= 5.22D+02 IAcc=3 IRadAn=         5 AccDes= 0.00D+00
 HarFok:  IExCor=  205 AccDes= 0.00D+00 IRadAn=         5 IDoV=-2 UseB2=F ITyADJ=14
 ICtDFT= 12500011 ScaDFX=  1.000000  1.000000  1.000000  1.000000
 Range of M.O.s used for correlation:     8   392
 NBasis=   392 NAE=    30 NBE=    29 NFC=     7 NFV=     0
 NROrb=    385 NOA=    23 NOB=    22 NVA=   362 NVB=   363

 **** Warning!!: The largest alpha MO coefficient is  0.13398149D+02


 **** Warning!!: The largest beta MO coefficient is  0.13059145D+02

 DoSCS=T DFT=T ScalE2(SS,OS)=  0.270000  0.270000
 Disk-based method using ON**2 memory for 23 occupieds at a time.
 Permanent disk used for amplitudes=   169421973 words.
 Estimated scratch disk usage=  3287705984 words.
 Actual    scratch disk usage=  3179211648 words.
 JobTyp=2 Pass  1:  I=   8 to  30 NPSUse= 40 ParTrn=T ParDer=T DoDerP=T.
 (rs|ai) integrals will be sorted in core.
 Actual    scratch disk usage=  3179211648 words.
 JobTyp=3 Pass  1:  I=   8 to  29 NPSUse= 40 ParTrn=T ParDer=T DoDerP=T.
 (rs|ai) integrals will be sorted in core.
 Spin components of T(2) and E(2):
     alpha-alpha T2 =       0.7519538153D-01 E2=     -0.5413210105D-01
     alpha-beta  T2 =       0.4598755026D+00 E2=     -0.3436245684D+00
     beta-beta   T2 =       0.7958863244D-01 E2=     -0.5249313079D-01
 (S**2,0)=  0.76808D+00           (S**2,1)=  0.74279D+00
 Scaling Projection term by:   0.270000
 E(PUHF)=      -0.34803197368D+03        E(PMP2)=      -0.34847663064D+03
 E2(B2PLYPD3) =    -0.4502498003D+00 E(B2PLYPD3) =    -0.34847613027454D+03
 G2DrvN: will do    21 centers at a time, making    1 passes.
 Calling FoFCou, ICntrl=  3107 FMM=F I1Cent=   0 AccDes= 0.00D+00.
 End of G2Drv F.D. properties file   721 does not exist.
 End of G2Drv F.D. properties file   722 does not exist.
 End of G2Drv F.D. properties file   788 does not exist.
          IDoAtm=11111111111111111111
          Differentiating once with respect to electric field.
                with respect to dipole field.
          Differentiating once with respect to nuclear coordinates.
 CalDSu exits because no D1Ps are significant.
          There are    63 degrees of freedom in the 1st order CPHF.  IDoFFX=6 NUNeed=    63.
     60 vectors produced by pass  0 Test12= 3.39D-14 1.59D-09 XBig12= 8.22D+01 4.80D+00.
 AX will form    60 AO Fock derivatives at one time.
     60 vectors produced by pass  1 Test12= 3.39D-14 1.59D-09 XBig12= 5.81D+00 4.62D-01.
     60 vectors produced by pass  2 Test12= 3.39D-14 1.59D-09 XBig12= 3.66D-01 9.31D-02.
     60 vectors produced by pass  3 Test12= 3.39D-14 1.59D-09 XBig12= 5.08D-03 7.25D-03.
     60 vectors produced by pass  4 Test12= 3.39D-14 1.59D-09 XBig12= 4.72D-05 6.42D-04.
     60 vectors produced by pass  5 Test12= 3.39D-14 1.59D-09 XBig12= 6.04D-07 7.26D-05.
     57 vectors produced by pass  6 Test12= 3.39D-14 1.59D-09 XBig12= 4.78D-09 4.85D-06.
     20 vectors produced by pass  7 Test12= 3.39D-14 1.59D-09 XBig12= 3.06D-11 3.99D-07.
      3 vectors produced by pass  8 Test12= 3.39D-14 1.59D-09 XBig12= 1.93D-13 3.38D-08.
      1 vectors produced by pass  9 Test12= 3.39D-14 1.59D-09 XBig12= 1.96D-15 3.27D-09.
 InvSVY:  IOpt=1 It=  1 EMax= 3.55D-15
 Solved reduced A of dimension   441 with    63 vectors.
 End of Minotr F.D. properties file   721 does not exist.
 End of Minotr F.D. properties file   722 does not exist.
 End of Minotr F.D. properties file   788 does not exist.
 MDV= 10737418240.
 DoSCS=T DFT=T ScalE2(SS,OS)=  0.270000  0.270000
 Form MO integral derivatives with frozen-active canonical formalism.
 Discarding MO integrals.
 Reordered first order wavefunction length =    681858357
 In DefCFB: NBatch=  1 ICI= 30 ICA=363 LFMax= 73
            Large arrays: LIAPS= 14755319040 LIARS=  2347884000 words.
 In DefCFB: NBatch=  1 ICI= 30 ICA=363 LFMax= 73
            Large arrays: LIAPS= 14755319040 LIARS=  2347884000 words.
 Semi-Direct transformation.
 ModeAB=           4 MOrb=            30 LenV=   10732969191
 LASXX=    860785125 LTotXX=   860785125 LenRXX=  1733127225
 LTotAB=   872342100 MaxLAS=  1008643440 LenRXY=           0
 NonZer=  2593912350 LenScr=  3906126848 LnRSAI=  1008643440
 LnScr1=  1518899200 LExtra=           0 Total=   8166796713
 MaxDsk=          -1 SrtSym=           T ITran=            4
 JobTyp=1 Pass  1:  I=   1 to  30.
 (rs|ai) integrals will be sorted in core.
 ModeAB=           4 MOrb=            29 LenV=   10732969191
 LASXX=    833505211 LTotXX=   833505211 LenRXX=  1553741497
 LTotAB=   720236286 MaxLAS=   975021992 LenRXY=           0
 NonZer=  2387246708 LenScr=  3594912768 LnRSAI=   975021992
 LnScr1=  1468268544 LExtra=           0 Total=   7591944801
 MaxDsk=          -1 SrtSym=           T ITran=            4
 JobTyp=2 Pass  1:  I=   1 to  29.
 (rs|ai) integrals will be sorted in core.
 SymMOI:  orbitals are not symmetric.
 DoSCS=T DFT=T ScalE2(SS,OS)=  0.270000  0.270000
 Spin components of T(2) and E(2):
     alpha-alpha T2 =       0.7519538153D-01 E2=     -0.5413210105D-01
     alpha-beta  T2 =       0.4598755026D+00 E2=     -0.3436245684D+00
     beta-beta   T2 =       0.7958863244D-01 E2=     -0.5249313079D-01
 E2(B2PLYPD3) =    -0.4502498003D+00 E(B2PLYPD3) =    -0.34847613027454D+03
 (S**2,0)=  0.76808D+00           (S**2,1)=  0.74279D+00
 Scaling Projection term by:   0.270000
 E(PUHF)=      -0.34803197368D+03        E(PMP2)=      -0.34847663064D+03
          IDoAtm=11111111111111111111
          Differentiating once with respect to electric field.
                with respect to dipole field.
          Differentiating once with respect to nuclear coordinates.
          There are     1 degrees of freedom in the 1st order CPHF.  IDoFFX=0 NUNeed=     1.
 LinEq1:  Iter=  0 NonCon=     1 RMS=7.77D-04 Max=6.51D-02 NDo=     1
 AX will form     1 AO Fock derivatives at one time.
 LinEq1:  Iter=  1 NonCon=     1 RMS=2.51D-04 Max=7.41D-03 NDo=     1
 LinEq1:  Iter=  2 NonCon=     1 RMS=1.39D-04 Max=9.07D-03 NDo=     1
 LinEq1:  Iter=  3 NonCon=     1 RMS=5.30D-05 Max=9.86D-04 NDo=     1
 LinEq1:  Iter=  4 NonCon=     1 RMS=2.87D-05 Max=7.22D-04 NDo=     1
 LinEq1:  Iter=  5 NonCon=     1 RMS=1.83D-05 Max=5.60D-04 NDo=     1
 LinEq1:  Iter=  6 NonCon=     1 RMS=1.31D-05 Max=4.02D-04 NDo=     1
 LinEq1:  Iter=  7 NonCon=     1 RMS=5.26D-06 Max=1.05D-04 NDo=     1
 LinEq1:  Iter=  8 NonCon=     1 RMS=2.59D-06 Max=4.82D-05 NDo=     1
 LinEq1:  Iter=  9 NonCon=     1 RMS=1.04D-06 Max=2.51D-05 NDo=     1
 LinEq1:  Iter= 10 NonCon=     1 RMS=3.74D-07 Max=9.52D-06 NDo=     1
 LinEq1:  Iter= 11 NonCon=     1 RMS=1.50D-07 Max=3.61D-06 NDo=     1
 LinEq1:  Iter= 12 NonCon=     1 RMS=5.09D-08 Max=1.07D-06 NDo=     1
 LinEq1:  Iter= 13 NonCon=     1 RMS=2.27D-08 Max=4.74D-07 NDo=     1
 LinEq1:  Iter= 14 NonCon=     1 RMS=8.77D-09 Max=2.61D-07 NDo=     1
 LinEq1:  Iter= 15 NonCon=     1 RMS=2.89D-09 Max=1.31D-07 NDo=     1
 LinEq1:  Iter= 16 NonCon=     1 RMS=1.03D-09 Max=6.64D-08 NDo=     1
 LinEq1:  Iter= 17 NonCon=     1 RMS=4.74D-10 Max=3.05D-08 NDo=     1
 LinEq1:  Iter= 18 NonCon=     1 RMS=2.21D-10 Max=1.26D-08 NDo=     1
 LinEq1:  Iter= 19 NonCon=     1 RMS=7.31D-11 Max=2.57D-09 NDo=     1
 LinEq1:  Iter= 20 NonCon=     0 RMS=2.01D-11 Max=5.01D-10 NDo=     1
 Linear equations converged to 1.000D-10 1.000D-09 after    20 iterations.
 End of Minotr F.D. properties file   721 does not exist.
 End of Minotr F.D. properties file   722 does not exist.
 End of Minotr F.D. properties file   788 does not exist.
 Symmetrizing basis deriv contribution to polar:
 IMax=3 JMax=2 DiffMx= 0.00D+00
 G2DrvN: will do    21 centers at a time, making    1 passes.
 Calling FoFCou, ICntrl=  3107 FMM=F I1Cent=   0 AccDes= 0.00D+00.
 End of G2Drv F.D. properties file   721 does not exist.
 End of G2Drv F.D. properties file   722 does not exist.
 End of G2Drv F.D. properties file   788 does not exist.
 DoSCS=T DFT=T ScalE2(SS,OS)=  0.270000  0.270000
 R2 and R3 integrals will be kept in memory, NReq=  9455860260.
 DD1Dir will call FoFMem   1 times, MxPair=      2582
 NAB=   870 NAA=   435 NBB=   406.
 Discarding MO integrals.

 **********************************************************************

            Population analysis using the SCF Density.

 **********************************************************************

 Orbital symmetries:
 Alpha Orbitals:
       Occupied  (A) (A) (A) (A) (A) (A) (A) (A) (A) (A) (A) (A)
                 (A) (A) (A) (A) (A) (A) (A) (A) (A) (A) (A) (A)
                 (A) (A) (A) (A) (A) (A)
       Virtual   (A) (A) (A) (A) (A) (A) (A) (A) (A) (A) (A) (A)
                 (A) (A) (A) (A) (A) (A) (A) (A) (A) (A) (A) (A)
                 (A) (A) (A) (A) (A) (A) (A) (A) (A) (A) (A) (A)
                 (A) (A) (A) (A) (A) (A) (A) (A) (A) (A) (A) (A)
                 (A) (A) (A) (A) (A) (A) (A) (A) (A) (A) (A) (A)
                 (A) (A) (A) (A) (A) (A) (A) (A) (A) (A) (A) (A)
                 (A) (A) (A) (A) (A) (A) (A) (A) (A) (A) (A) (A)
                 (A) (A) (A) (A) (A) (A) (A) (A) (A) (A) (A) (A)
                 (A) (A) (A) (A) (A) (A) (A) (A) (A) (A) (A) (A)
                 (A) (A) (A) (A) (A) (A) (A) (A) (A) (A) (A) (A)
                 (A) (A) (A) (A) (A) (A) (A) (A) (A) (A) (A) (A)
                 (A) (A) (A) (A) (A) (A) (A) (A) (A) (A) (A) (A)
                 (A) (A) (A) (A) (A) (A) (A) (A) (A) (A) (A) (A)
                 (A) (A) (A) (A) (A) (A) (A) (A) (A) (A) (A) (A)
                 (A) (A) (A) (A) (A) (A) (A) (A) (A) (A) (A) (A)
                 (A) (A) (A) (A) (A) (A) (A) (A) (A) (A) (A) (A)
                 (A) (A) (A) (A) (A) (A) (A) (A) (A) (A) (A) (A)
                 (A) (A) (A) (A) (A) (A) (A) (A) (A) (A) (A) (A)
                 (A) (A) (A) (A) (A) (A) (A) (A) (A) (A) (A) (A)
                 (A) (A) (A) (A) (A) (A) (A) (A) (A) (A) (A) (A)
                 (A) (A) (A) (A) (A) (A) (A) (A) (A) (A) (A) (A)
                 (A) (A) (A) (A) (A) (A) (A) (A) (A) (A) (A) (A)
                 (A) (A) (A) (A) (A) (A) (A) (A) (A) (A) (A) (A)
                 (A) (A) (A) (A) (A) (A) (A) (A) (A) (A) (A) (A)
                 (A) (A) (A) (A) (A) (A) (A) (A) (A) (A) (A) (A)
                 (A) (A) (A) (A) (A) (A) (A) (A) (A) (A) (A) (A)
                 (A) (A) (A) (A) (A) (A) (A) (A) (A) (A) (A) (A)
                 (A) (A) (A) (A) (A) (A) (A) (A) (A) (A) (A) (A)
                 (A) (A) (A) (A) (A) (A) (A) (A) (A) (A) (A) (A)
                 (A) (A) (A) (A) (A) (A) (A) (A) (A) (A) (A) (A)
                 (A) (A)
 Beta  Orbitals:
       Occupied  (A) (A) (A) (A) (A) (A) (A) (A) (A) (A) (A) (A)
                 (A) (A) (A) (A) (A) (A) (A) (A) (A) (A) (A) (A)
                 (A) (A) (A) (A) (A)
       Virtual   (A) (A) (A) (A) (A) (A) (A) (A) (A) (A) (A) (A)
                 (A) (A) (A) (A) (A) (A) (A) (A) (A) (A) (A) (A)
                 (A) (A) (A) (A) (A) (A) (A) (A) (A) (A) (A) (A)
                 (A) (A) (A) (A) (A) (A) (A) (A) (A) (A) (A) (A)
                 (A) (A) (A) (A) (A) (A) (A) (A) (A) (A) (A) (A)
                 (A) (A) (A) (A) (A) (A) (A) (A) (A) (A) (A) (A)
                 (A) (A) (A) (A) (A) (A) (A) (A) (A) (A) (A) (A)
                 (A) (A) (A) (A) (A) (A) (A) (A) (A) (A) (A) (A)
                 (A) (A) (A) (A) (A) (A) (A) (A) (A) (A) (A) (A)
                 (A) (A) (A) (A) (A) (A) (A) (A) (A) (A) (A) (A)
                 (A) (A) (A) (A) (A) (A) (A) (A) (A) (A) (A) (A)
                 (A) (A) (A) (A) (A) (A) (A) (A) (A) (A) (A) (A)
                 (A) (A) (A) (A) (A) (A) (A) (A) (A) (A) (A) (A)
                 (A) (A) (A) (A) (A) (A) (A) (A) (A) (A) (A) (A)
                 (A) (A) (A) (A) (A) (A) (A) (A) (A) (A) (A) (A)
                 (A) (A) (A) (A) (A) (A) (A) (A) (A) (A) (A) (A)
                 (A) (A) (A) (A) (A) (A) (A) (A) (A) (A) (A) (A)
                 (A) (A) (A) (A) (A) (A) (A) (A) (A) (A) (A) (A)
                 (A) (A) (A) (A) (A) (A) (A) (A) (A) (A) (A) (A)
                 (A) (A) (A) (A) (A) (A) (A) (A) (A) (A) (A) (A)
                 (A) (A) (A) (A) (A) (A) (A) (A) (A) (A) (A) (A)
                 (A) (A) (A) (A) (A) (A) (A) (A) (A) (A) (A) (A)
                 (A) (A) (A) (A) (A) (A) (A) (A) (A) (A) (A) (A)
                 (A) (A) (A) (A) (A) (A) (A) (A) (A) (A) (A) (A)
                 (A) (A) (A) (A) (A) (A) (A) (A) (A) (A) (A) (A)
                 (A) (A) (A) (A) (A) (A) (A) (A) (A) (A) (A) (A)
                 (A) (A) (A) (A) (A) (A) (A) (A) (A) (A) (A) (A)
                 (A) (A) (A) (A) (A) (A) (A) (A) (A) (A) (A) (A)
                 (A) (A) (A) (A) (A) (A) (A) (A) (A) (A) (A) (A)
                 (A) (A) (A) (A) (A) (A) (A) (A) (A) (A) (A) (A)
                 (A) (A) (A)
 The electronic state is 2-A.
 Alpha  occ. eigenvalues --  -19.78559 -19.78344 -10.66046 -10.63439 -10.62383
 Alpha  occ. eigenvalues --  -10.60757 -10.59669  -1.27218  -1.02024  -0.93459
 Alpha  occ. eigenvalues --   -0.80575  -0.79115  -0.77359  -0.65858  -0.60961
 Alpha  occ. eigenvalues --   -0.55834  -0.54503  -0.54260  -0.51035  -0.50942
 Alpha  occ. eigenvalues --   -0.48426  -0.46100  -0.44957  -0.43995  -0.41458
 Alpha  occ. eigenvalues --   -0.40330  -0.39293  -0.36730  -0.36531  -0.29689
 Alpha virt. eigenvalues --    0.07153   0.09314   0.10892   0.11931   0.12612
 Alpha virt. eigenvalues --    0.13198   0.14757   0.15029   0.16272   0.16506
 Alpha virt. eigenvalues --    0.18267   0.18949   0.19681   0.21213   0.22106
 Alpha virt. eigenvalues --    0.24389   0.24594   0.27617   0.29373   0.31108
 Alpha virt. eigenvalues --    0.32971   0.34150   0.35501   0.35872   0.39354
 Alpha virt. eigenvalues --    0.40089   0.40971   0.42704   0.45088   0.45715
 Alpha virt. eigenvalues --    0.49185   0.49607   0.49727   0.50696   0.51800
 Alpha virt. eigenvalues --    0.52119   0.52660   0.52724   0.53680   0.54568
 Alpha virt. eigenvalues --    0.54821   0.55442   0.56210   0.56393   0.57463
 Alpha virt. eigenvalues --    0.58938   0.61071   0.63752   0.66147   0.67264
 Alpha virt. eigenvalues --    0.68283   0.72362   0.72820   0.74049   0.75459
 Alpha virt. eigenvalues --    0.78823   0.82335   0.83734   0.84929   0.86648
 Alpha virt. eigenvalues --    0.88281   0.90382   0.91894   0.92939   0.95209
 Alpha virt. eigenvalues --    0.96559   0.97186   0.98283   0.98912   1.00795
 Alpha virt. eigenvalues --    1.02757   1.04515   1.05084   1.07748   1.08922
 Alpha virt. eigenvalues --    1.10305   1.11039   1.11131   1.12406   1.13490
 Alpha virt. eigenvalues --    1.14693   1.16291   1.17557   1.19519   1.21158
 Alpha virt. eigenvalues --    1.21542   1.22733   1.25291   1.26572   1.27374
 Alpha virt. eigenvalues --    1.28211   1.30000   1.32831   1.34175   1.35893
 Alpha virt. eigenvalues --    1.36425   1.37561   1.38166   1.38556   1.39084
 Alpha virt. eigenvalues --    1.39524   1.40986   1.41975   1.43390   1.46394
 Alpha virt. eigenvalues --    1.46740   1.48553   1.49665   1.50638   1.52933
 Alpha virt. eigenvalues --    1.54663   1.54800   1.59399   1.60553   1.61643
 Alpha virt. eigenvalues --    1.62431   1.67837   1.68103   1.68995   1.73475
 Alpha virt. eigenvalues --    1.75451   1.79900   1.81750   1.82889   1.92058
 Alpha virt. eigenvalues --    1.95508   1.99606   2.06687   2.12807   2.20007
 Alpha virt. eigenvalues --    2.24292   2.28390   2.32173   2.36963   2.37327
 Alpha virt. eigenvalues --    2.40624   2.41718   2.43783   2.45838   2.46703
 Alpha virt. eigenvalues --    2.48111   2.50545   2.52029   2.58467   2.60879
 Alpha virt. eigenvalues --    2.65394   2.67121   2.68096   2.70133   2.71218
 Alpha virt. eigenvalues --    2.73153   2.73724   2.75483   2.76227   2.77868
 Alpha virt. eigenvalues --    2.83305   2.85875   2.86538   2.87698   2.89442
 Alpha virt. eigenvalues --    2.91053   2.91502   2.92464   2.93500   2.94503
 Alpha virt. eigenvalues --    2.94857   2.95790   2.97273   3.01830   3.02106
 Alpha virt. eigenvalues --    3.03399   3.06895   3.08977   3.12045   3.12714
 Alpha virt. eigenvalues --    3.13091   3.13879   3.14699   3.16031   3.17273
 Alpha virt. eigenvalues --    3.17466   3.18460   3.19531   3.21139   3.21506
 Alpha virt. eigenvalues --    3.22093   3.22588   3.24246   3.27380   3.28957
 Alpha virt. eigenvalues --    3.29465   3.31558   3.34418   3.37606   3.39827
 Alpha virt. eigenvalues --    3.41650   3.42688   3.43260   3.43991   3.45904
 Alpha virt. eigenvalues --    3.47564   3.49005   3.49520   3.51165   3.52419
 Alpha virt. eigenvalues --    3.53726   3.54831   3.56458   3.57447   3.58948
 Alpha virt. eigenvalues --    3.59282   3.60035   3.61368   3.63176   3.64836
 Alpha virt. eigenvalues --    3.65349   3.68376   3.69737   3.72218   3.75020
 Alpha virt. eigenvalues --    3.76222   3.79114   3.81393   3.81971   3.83200
 Alpha virt. eigenvalues --    3.86212   3.86977   3.89656   3.90399   3.91275
 Alpha virt. eigenvalues --    3.92810   3.94831   3.95485   3.95800   3.97014
 Alpha virt. eigenvalues --    3.98553   4.00209   4.03247   4.06091   4.06526
 Alpha virt. eigenvalues --    4.07155   4.09634   4.10499   4.11533   4.12399
 Alpha virt. eigenvalues --    4.13176   4.14398   4.16211   4.17209   4.18843
 Alpha virt. eigenvalues --    4.20875   4.22416   4.24485   4.25911   4.26358
 Alpha virt. eigenvalues --    4.27731   4.28064   4.30612   4.31462   4.32200
 Alpha virt. eigenvalues --    4.32954   4.33766   4.35986   4.37772   4.38899
 Alpha virt. eigenvalues --    4.42657   4.45667   4.45701   4.48245   4.49391
 Alpha virt. eigenvalues --    4.51888   4.52640   4.54290   4.56161   4.60270
 Alpha virt. eigenvalues --    4.62696   4.66172   4.69949   4.71852   4.76871
 Alpha virt. eigenvalues --    4.77820   4.81198   4.83188   4.84023   4.88183
 Alpha virt. eigenvalues --    4.90287   4.91867   4.94757   4.97489   4.99484
 Alpha virt. eigenvalues --    5.00739   5.01756   5.02358   5.03323   5.05734
 Alpha virt. eigenvalues --    5.07444   5.10735   5.10931   5.14237   5.19045
 Alpha virt. eigenvalues --    5.22269   5.25201   5.28482   5.29110   5.30740
 Alpha virt. eigenvalues --    5.31409   5.32942   5.34126   5.36665   5.37732
 Alpha virt. eigenvalues --    5.39243   5.39613   5.40028   5.43512   5.46448
 Alpha virt. eigenvalues --    5.47365   5.49137   5.51177   5.52870   5.53710
 Alpha virt. eigenvalues --    5.58747   5.61589   5.62486   5.66442   5.68277
 Alpha virt. eigenvalues --    5.69608   5.71678   5.77875   5.86147   5.93233
 Alpha virt. eigenvalues --    5.96982   5.98346   6.03291   6.06894   6.07367
 Alpha virt. eigenvalues --    6.07835   6.08584   6.11084   6.12037   6.26655
 Alpha virt. eigenvalues --    6.32475   6.37758   6.41750   6.64951   6.75571
 Alpha virt. eigenvalues --    6.76814   6.83503   6.96809   7.06772   7.07627
 Alpha virt. eigenvalues --    7.21907   7.42764   7.44946   7.59490   7.76606
 Alpha virt. eigenvalues --    9.95378  10.61242  11.67242  13.07295  13.44621
 Alpha virt. eigenvalues --   13.82509  13.96958
  Beta  occ. eigenvalues --  -19.78424 -19.76743 -10.66055 -10.62439 -10.62177
  Beta  occ. eigenvalues --  -10.60636 -10.59661  -1.25385  -0.99161  -0.92502
  Beta  occ. eigenvalues --   -0.78974  -0.78249  -0.76489  -0.65135  -0.57622
  Beta  occ. eigenvalues --   -0.54943  -0.54188  -0.53560  -0.50724  -0.49480
  Beta  occ. eigenvalues --   -0.46440  -0.45272  -0.44473  -0.43249  -0.40327
  Beta  occ. eigenvalues --   -0.39883  -0.39096  -0.35327  -0.33482
  Beta virt. eigenvalues --   -0.04368   0.07307   0.09456   0.11171   0.12067
  Beta virt. eigenvalues --    0.12944   0.13522   0.14913   0.15177   0.16368
  Beta virt. eigenvalues --    0.16670   0.18465   0.19125   0.19870   0.21395
  Beta virt. eigenvalues --    0.22501   0.24506   0.25182   0.28123   0.29509
  Beta virt. eigenvalues --    0.31404   0.33462   0.34294   0.35800   0.36168
  Beta virt. eigenvalues --    0.39927   0.40714   0.41811   0.43069   0.45331
  Beta virt. eigenvalues --    0.46048   0.49395   0.50038   0.50465   0.50855
  Beta virt. eigenvalues --    0.51906   0.52297   0.52878   0.52936   0.54075
  Beta virt. eigenvalues --    0.55013   0.55506   0.56230   0.56469   0.56950
  Beta virt. eigenvalues --    0.58428   0.59340   0.61471   0.63998   0.66639
  Beta virt. eigenvalues --    0.67579   0.68590   0.72652   0.73726   0.74501
  Beta virt. eigenvalues --    0.75666   0.78928   0.82476   0.84020   0.85195
  Beta virt. eigenvalues --    0.87236   0.88538   0.90598   0.92208   0.93097
  Beta virt. eigenvalues --    0.95384   0.96834   0.97325   0.98583   0.99321
  Beta virt. eigenvalues --    1.01101   1.02816   1.04666   1.05228   1.07904
  Beta virt. eigenvalues --    1.09276   1.10420   1.11198   1.11350   1.12673
  Beta virt. eigenvalues --    1.13864   1.14903   1.16418   1.17657   1.19693
  Beta virt. eigenvalues --    1.21396   1.21943   1.23089   1.25491   1.26741
  Beta virt. eigenvalues --    1.27611   1.28373   1.30357   1.33086   1.34475
  Beta virt. eigenvalues --    1.36202   1.36847   1.37945   1.38329   1.38708
  Beta virt. eigenvalues --    1.39197   1.39725   1.41145   1.42155   1.43814
  Beta virt. eigenvalues --    1.46767   1.46968   1.48824   1.50123   1.50860
  Beta virt. eigenvalues --    1.53308   1.54962   1.55218   1.59851   1.60696
  Beta virt. eigenvalues --    1.61762   1.62596   1.68285   1.68388   1.69274
  Beta virt. eigenvalues --    1.73912   1.75800   1.80172   1.81975   1.84496
  Beta virt. eigenvalues --    1.93838   1.96145   2.00194   2.07824   2.13101
  Beta virt. eigenvalues --    2.22195   2.24569   2.29161   2.32305   2.37189
  Beta virt. eigenvalues --    2.37433   2.41193   2.42336   2.44133   2.46372
  Beta virt. eigenvalues --    2.47055   2.48443   2.50658   2.52556   2.59030
  Beta virt. eigenvalues --    2.61081   2.65671   2.67309   2.68767   2.70442
  Beta virt. eigenvalues --    2.71818   2.73314   2.74156   2.75761   2.76826
  Beta virt. eigenvalues --    2.77879   2.83480   2.86078   2.86639   2.88092
  Beta virt. eigenvalues --    2.90764   2.91154   2.91926   2.92695   2.93857
  Beta virt. eigenvalues --    2.94605   2.95085   2.96225   2.97868   3.02050
  Beta virt. eigenvalues --    3.02525   3.03806   3.07032   3.09576   3.12150
  Beta virt. eigenvalues --    3.12924   3.13240   3.14037   3.14877   3.16624
  Beta virt. eigenvalues --    3.17476   3.18004   3.18926   3.19804   3.21355
  Beta virt. eigenvalues --    3.21675   3.22776   3.22879   3.24381   3.27819
  Beta virt. eigenvalues --    3.29132   3.30170   3.31919   3.35923   3.37712
  Beta virt. eigenvalues --    3.39939   3.41702   3.42730   3.43669   3.44476
  Beta virt. eigenvalues --    3.46110   3.47706   3.49248   3.49698   3.51283
  Beta virt. eigenvalues --    3.52747   3.53871   3.55182   3.56755   3.57851
  Beta virt. eigenvalues --    3.59199   3.59570   3.60256   3.61498   3.63368
  Beta virt. eigenvalues --    3.65075   3.65584   3.68714   3.70391   3.72394
  Beta virt. eigenvalues --    3.75246   3.76351   3.79399   3.81503   3.82315
  Beta virt. eigenvalues --    3.83333   3.86201   3.87166   3.89777   3.90636
  Beta virt. eigenvalues --    3.91457   3.92893   3.95003   3.95519   3.96003
  Beta virt. eigenvalues --    3.97391   3.98633   4.00366   4.03402   4.06168
  Beta virt. eigenvalues --    4.06408   4.07372   4.09851   4.10509   4.11645
  Beta virt. eigenvalues --    4.12432   4.13415   4.14502   4.16305   4.17301
  Beta virt. eigenvalues --    4.18853   4.21069   4.22617   4.24580   4.26017
  Beta virt. eigenvalues --    4.26451   4.27902   4.28319   4.30694   4.31480
  Beta virt. eigenvalues --    4.32294   4.33132   4.34044   4.36042   4.37984
  Beta virt. eigenvalues --    4.38943   4.42867   4.45865   4.46104   4.48370
  Beta virt. eigenvalues --    4.49604   4.52284   4.52915   4.54616   4.56796
  Beta virt. eigenvalues --    4.60468   4.63357   4.66621   4.70257   4.72055
  Beta virt. eigenvalues --    4.77214   4.78155   4.81521   4.83575   4.84339
  Beta virt. eigenvalues --    4.88575   4.90633   4.92109   4.94896   4.97733
  Beta virt. eigenvalues --    4.99716   5.00889   5.01992   5.02423   5.03448
  Beta virt. eigenvalues --    5.05925   5.07765   5.11055   5.11435   5.14752
  Beta virt. eigenvalues --    5.19545   5.23058   5.25920   5.28627   5.29211
  Beta virt. eigenvalues --    5.31037   5.31588   5.33068   5.34377   5.36883
  Beta virt. eigenvalues --    5.38099   5.39667   5.40074   5.40436   5.43862
  Beta virt. eigenvalues --    5.46575   5.47595   5.49368   5.51279   5.52930
  Beta virt. eigenvalues --    5.53775   5.58964   5.61771   5.62700   5.66637
  Beta virt. eigenvalues --    5.68887   5.69738   5.72112   5.78503   5.87748
  Beta virt. eigenvalues --    5.93345   5.97227   5.98500   6.04648   6.06955
  Beta virt. eigenvalues --    6.07507   6.07926   6.09104   6.11362   6.12218
  Beta virt. eigenvalues --    6.27168   6.34638   6.38432   6.42905   6.65986
  Beta virt. eigenvalues --    6.77181   6.79516   6.84781   6.98544   7.07642
  Beta virt. eigenvalues --    7.09173   7.24064   7.43416   7.46607   7.61371
  Beta virt. eigenvalues --    7.77169   9.96252  10.62264  11.67396  13.08184
  Beta virt. eigenvalues --   13.44636  13.82580  13.97009
          Condensed to atoms (all electrons):
               1          2          3          4          5          6
     1  C    4.919520   0.417942   0.306840  -0.030366  -0.041248  -0.000001
     2  H    0.417942   0.589833  -0.042037   0.006870  -0.004259  -0.001188
     3  C    0.306840  -0.042037   5.192719   0.400083   0.408998  -0.002999
     4  H   -0.030366   0.006870   0.400083   0.540881  -0.028625   0.000078
     5  H   -0.041248  -0.004259   0.408998  -0.028625   0.548928   0.000161
     6  C   -0.000001  -0.001188  -0.002999   0.000078   0.000161   4.603683
     7  H    0.000502  -0.001934  -0.000133  -0.000222  -0.000561   0.392358
     8  H   -0.000104   0.000080   0.000180   0.000002  -0.000078   0.395895
     9  H    0.000073   0.000436  -0.000371   0.000028   0.000011   0.411993
    10  O   -0.005535   0.014269   0.004339   0.000503   0.000022   0.302768
    11  O   -0.005705  -0.002071  -0.073932   0.000512  -0.000235  -0.047792
    12  H   -0.004721  -0.003479   0.214688  -0.007350  -0.008123   0.000019
    13  C    0.342621  -0.041369  -0.054979  -0.002928  -0.003945  -0.000087
    14  H   -0.034802   0.007433  -0.003179   0.002511  -0.000207  -0.000000
    15  H   -0.036350  -0.004631   0.008234  -0.000198  -0.000095  -0.000001
    16  H   -0.036071  -0.005075  -0.004795  -0.000020   0.002762   0.000003
    17  C    0.339163  -0.034961  -0.047800  -0.004895   0.006963  -0.000036
    18  H   -0.033879  -0.004914  -0.001016  -0.000194   0.000209   0.000281
    19  H   -0.036165  -0.006300   0.008070  -0.000146  -0.000344   0.000008
    20  H   -0.035640   0.007781  -0.006945   0.004094  -0.000179  -0.000004
               7          8          9         10         11         12
     1  C    0.000502  -0.000104   0.000073  -0.005535  -0.005705  -0.004721
     2  H   -0.001934   0.000080   0.000436   0.014269  -0.002071  -0.003479
     3  C   -0.000133   0.000180  -0.000371   0.004339  -0.073932   0.214688
     4  H   -0.000222   0.000002   0.000028   0.000503   0.000512  -0.007350
     5  H   -0.000561  -0.000078   0.000011   0.000022  -0.000235  -0.008123
     6  C    0.392358   0.395895   0.411993   0.302768  -0.047792   0.000019
     7  H    0.685552  -0.035185  -0.059087  -0.050744  -0.002615   0.004311
     8  H   -0.035185   0.591637  -0.028167  -0.026558   0.006767  -0.000033
     9  H   -0.059087  -0.028167   0.613060  -0.037111   0.004373   0.000317
    10  O   -0.050744  -0.026558  -0.037111   7.951333   0.072030  -0.029702
    11  O   -0.002615   0.006767   0.004373   0.072030   8.066003   0.200942
    12  H    0.004311  -0.000033   0.000317  -0.029702   0.200942   0.419851
    13  C    0.000049  -0.000002  -0.000000  -0.000057   0.000059   0.001954
    14  H    0.000006   0.000000  -0.000000  -0.000012   0.000010  -0.000180
    15  H   -0.000000  -0.000000  -0.000000  -0.000003   0.000011  -0.000063
    16  H    0.000006  -0.000000  -0.000000  -0.000006   0.000007  -0.000031
    17  C   -0.000005   0.000039  -0.000023  -0.000536  -0.002454  -0.002183
    18  H    0.000003  -0.000101   0.000018  -0.000508   0.010897  -0.000242
    19  H   -0.000003  -0.000002  -0.000001  -0.000136   0.000158   0.000055
    20  H    0.000007   0.000001  -0.000000   0.000040  -0.000267  -0.000311
              13         14         15         16         17         18
     1  C    0.342621  -0.034802  -0.036350  -0.036071   0.339163  -0.033879
     2  H   -0.041369   0.007433  -0.004631  -0.005075  -0.034961  -0.004914
     3  C   -0.054979  -0.003179   0.008234  -0.004795  -0.047800  -0.001016
     4  H   -0.002928   0.002511  -0.000198  -0.000020  -0.004895  -0.000194
     5  H   -0.003945  -0.000207  -0.000095   0.002762   0.006963   0.000209
     6  C   -0.000087  -0.000000  -0.000001   0.000003  -0.000036   0.000281
     7  H    0.000049   0.000006  -0.000000   0.000006  -0.000005   0.000003
     8  H   -0.000002   0.000000  -0.000000  -0.000000   0.000039  -0.000101
     9  H   -0.000000  -0.000000  -0.000000  -0.000000  -0.000023   0.000018
    10  O   -0.000057  -0.000012  -0.000003  -0.000006  -0.000536  -0.000508
    11  O    0.000059   0.000010   0.000011   0.000007  -0.002454   0.010897
    12  H    0.001954  -0.000180  -0.000063  -0.000031  -0.002183  -0.000242
    13  C    4.889581   0.402179   0.408956   0.412808  -0.053417   0.006798
    14  H    0.402179   0.598587  -0.030106  -0.032232  -0.004807  -0.000135
    15  H    0.408956  -0.030106   0.583718  -0.029085  -0.004730  -0.000093
    16  H    0.412808  -0.032232  -0.029085   0.586430   0.007629  -0.000358
    17  C   -0.053417  -0.004807  -0.004730   0.007629   4.878886   0.410583
    18  H    0.006798  -0.000135  -0.000093  -0.000358   0.410583   0.548673
    19  H   -0.005223  -0.000273   0.002969  -0.000054   0.410275  -0.025376
    20  H   -0.005728   0.004054  -0.000251  -0.000138   0.405904  -0.030177
              19         20
     1  C   -0.036165  -0.035640
     2  H   -0.006300   0.007781
     3  C    0.008070  -0.006945
     4  H   -0.000146   0.004094
     5  H   -0.000344  -0.000179
     6  C    0.000008  -0.000004
     7  H   -0.000003   0.000007
     8  H   -0.000002   0.000001
     9  H   -0.000001  -0.000000
    10  O   -0.000136   0.000040
    11  O    0.000158  -0.000267
    12  H    0.000055  -0.000311
    13  C   -0.005223  -0.005728
    14  H   -0.000273   0.004054
    15  H    0.002969  -0.000251
    16  H   -0.000054  -0.000138
    17  C    0.410275   0.405904
    18  H   -0.025376  -0.030177
    19  H    0.590252  -0.033764
    20  H   -0.033764   0.607861
          Atomic-Atomic Spin Densities.
               1          2          3          4          5          6
     1  C   -0.028842   0.003336  -0.028417   0.000835   0.000737  -0.000256
     2  H    0.003336   0.007205  -0.003261   0.000018   0.000631  -0.000200
     3  C   -0.028417  -0.003261   0.710188   0.003946   0.002925   0.000758
     4  H    0.000835   0.000018   0.003946  -0.023620   0.003686  -0.000031
     5  H    0.000737   0.000631   0.002925   0.003686  -0.023714  -0.000187
     6  C   -0.000256  -0.000200   0.000758  -0.000031  -0.000187  -0.005480
     7  H    0.000461   0.000408  -0.004467   0.000146   0.001051   0.003817
     8  H   -0.000020  -0.000036   0.000135  -0.000002  -0.000010   0.000564
     9  H   -0.000090  -0.000061   0.001146  -0.000027  -0.000138  -0.002534
    10  O   -0.001903  -0.001456   0.012243  -0.000257  -0.000786   0.000702
    11  O    0.007173   0.001090  -0.088811   0.002508   0.003169  -0.001548
    12  H   -0.000694   0.000507   0.064222   0.001293   0.001348   0.001128
    13  C    0.010931  -0.003016  -0.017756  -0.001899  -0.001745   0.000045
    14  H   -0.000062   0.000107   0.001778   0.000305   0.000181  -0.000001
    15  H   -0.001916   0.000775   0.001889   0.000164   0.000206  -0.000003
    16  H    0.000649  -0.000002  -0.000095   0.000047   0.000023  -0.000001
    17  C    0.004712   0.000426  -0.004377   0.000231   0.000025  -0.000001
    18  H   -0.000676  -0.000271   0.001929  -0.000267  -0.000156  -0.000034
    19  H    0.000747   0.000057  -0.000097  -0.000020   0.000014  -0.000000
    20  H    0.000387   0.000072   0.000081   0.000256   0.000047  -0.000000
               7          8          9         10         11         12
     1  C    0.000461  -0.000020  -0.000090  -0.001903   0.007173  -0.000694
     2  H    0.000408  -0.000036  -0.000061  -0.001456   0.001090   0.000507
     3  C   -0.004467   0.000135   0.001146   0.012243  -0.088811   0.064222
     4  H    0.000146  -0.000002  -0.000027  -0.000257   0.002508   0.001293
     5  H    0.001051  -0.000010  -0.000138  -0.000786   0.003169   0.001348
     6  C    0.003817   0.000564  -0.002534   0.000702  -0.001548   0.001128
     7  H    0.002142  -0.000794  -0.001285  -0.000995   0.003738  -0.003557
     8  H   -0.000794  -0.001685   0.001043   0.000114  -0.000207   0.000037
     9  H   -0.001285   0.001043   0.003658  -0.000464  -0.000426   0.001374
    10  O   -0.000995   0.000114  -0.000464   0.046246  -0.040227   0.010200
    11  O    0.003738  -0.000207  -0.000426  -0.040227   0.574278  -0.051392
    12  H   -0.003557   0.000037   0.001374   0.010200  -0.051392  -0.098796
    13  C   -0.000101   0.000002   0.000006   0.000163  -0.000522   0.000309
    14  H    0.000003  -0.000000  -0.000000  -0.000004   0.000023  -0.000057
    15  H    0.000009  -0.000000  -0.000000  -0.000018   0.000029  -0.000047
    16  H    0.000008  -0.000000  -0.000000  -0.000006   0.000010  -0.000020
    17  C    0.000025  -0.000004  -0.000006  -0.000382   0.001384  -0.000788
    18  H   -0.000006   0.000010   0.000007   0.000315  -0.002005   0.001351
    19  H   -0.000000   0.000000   0.000000   0.000005  -0.000004   0.000010
    20  H    0.000001  -0.000000  -0.000000  -0.000011   0.000102  -0.000160
              13         14         15         16         17         18
     1  C    0.010931  -0.000062  -0.001916   0.000649   0.004712  -0.000676
     2  H   -0.003016   0.000107   0.000775  -0.000002   0.000426  -0.000271
     3  C   -0.017756   0.001778   0.001889  -0.000095  -0.004377   0.001929
     4  H   -0.001899   0.000305   0.000164   0.000047   0.000231  -0.000267
     5  H   -0.001745   0.000181   0.000206   0.000023   0.000025  -0.000156
     6  C    0.000045  -0.000001  -0.000003  -0.000001  -0.000001  -0.000034
     7  H   -0.000101   0.000003   0.000009   0.000008   0.000025  -0.000006
     8  H    0.000002  -0.000000  -0.000000  -0.000000  -0.000004   0.000010
     9  H    0.000006  -0.000000  -0.000000  -0.000000  -0.000006   0.000007
    10  O    0.000163  -0.000004  -0.000018  -0.000006  -0.000382   0.000315
    11  O   -0.000522   0.000023   0.000029   0.000010   0.001384  -0.002005
    12  H    0.000309  -0.000057  -0.000047  -0.000020  -0.000788   0.001351
    13  C    0.050119  -0.001987  -0.003491   0.000135  -0.000363   0.000509
    14  H   -0.001987  -0.002077   0.001258   0.000464  -0.000010  -0.000040
    15  H   -0.003491   0.001258   0.011668   0.000179  -0.000143  -0.000100
    16  H    0.000135   0.000464   0.000179  -0.002544  -0.000022  -0.000002
    17  C   -0.000363  -0.000010  -0.000143  -0.000022   0.001956   0.000175
    18  H    0.000509  -0.000040  -0.000100  -0.000002   0.000175  -0.000738
    19  H    0.000087   0.000009  -0.000176   0.000004   0.000059   0.000074
    20  H   -0.000672   0.000061   0.000172   0.000007  -0.000327  -0.000119
              19         20
     1  C    0.000747   0.000387
     2  H    0.000057   0.000072
     3  C   -0.000097   0.000081
     4  H   -0.000020   0.000256
     5  H    0.000014   0.000047
     6  C   -0.000000  -0.000000
     7  H   -0.000000   0.000001
     8  H    0.000000  -0.000000
     9  H    0.000000  -0.000000
    10  O    0.000005  -0.000011
    11  O   -0.000004   0.000102
    12  H    0.000010  -0.000160
    13  C    0.000087  -0.000672
    14  H    0.000009   0.000061
    15  H   -0.000176   0.000172
    16  H    0.000004   0.000007
    17  C    0.000059  -0.000327
    18  H    0.000074  -0.000119
    19  H   -0.002071   0.000099
    20  H    0.000099  -0.000113
 Mulliken charges and spin densities:
               1          2
     1  C   -0.026076  -0.032908
     2  H    0.107576   0.006330
     3  C   -0.305963   0.653958
     4  H    0.119382  -0.012688
     5  H    0.119846  -0.012690
     6  C   -0.055139  -0.003262
     7  H    0.067696   0.000604
     8  H    0.095629  -0.000853
     9  H    0.094452   0.002202
    10  O   -0.194397   0.023479
    11  O   -0.226699   0.408365
    12  H    0.214279  -0.073734
    13  C   -0.297272   0.030756
    14  H    0.091153  -0.000050
    15  H    0.101716   0.010454
    16  H    0.098220  -0.001167
    17  C   -0.303595   0.002570
    18  H    0.119529  -0.000043
    19  H    0.096001  -0.001204
    20  H    0.083662  -0.000119
 Sum of Mulliken charges =  -0.00000   1.00000
 Mulliken charges and spin densities with hydrogens summed into heavy atoms:
               1          2
     1  C    0.081500  -0.026578
     3  C   -0.066734   0.628580
     6  C    0.202638  -0.001309
    10  O   -0.194397   0.023479
    11  O   -0.012420   0.334631
    13  C   -0.006183   0.039992
    17  C   -0.004403   0.001204
 APT charges:
               1
     1  C   -0.030690
     2  H   -0.027079
     3  C    0.398269
     4  H   -0.043345
     5  H   -0.062417
     6  C    0.446751
     7  H   -0.042319
     8  H   -0.007119
     9  H   -0.032720
    10  O   -0.414187
    11  O    0.092447
    12  H   -0.305187
    13  C    0.100733
    14  H   -0.018720
    15  H   -0.047559
    16  H   -0.019866
    17  C    0.049526
    18  H    0.007343
    19  H   -0.023121
    20  H   -0.020741
 Sum of APT charges =   0.00000
 APT charges with hydrogens summed into heavy atoms:
               1
     1  C   -0.057769
     3  C    0.292508
     6  C    0.364593
    10  O   -0.414187
    11  O   -0.212739
    13  C    0.014589
    17  C    0.013007
 Electronic spatial extent (au):  <R**2>=           1205.2853
 Charge=             -0.0000 electrons
 Dipole moment (field-independent basis, Debye):
    X=             -0.8044    Y=             -2.2245    Z=              0.0557  Tot=              2.3661
 Quadrupole moment (field-independent basis, Debye-Ang):
   XX=            -44.0594   YY=            -46.8044   ZZ=            -45.7918
   XY=             -4.6444   XZ=             -1.6016   YZ=              0.1993
 Traceless Quadrupole moment (field-independent basis, Debye-Ang):
   XX=              1.4925   YY=             -1.2525   ZZ=             -0.2399
   XY=             -4.6444   XZ=             -1.6016   YZ=              0.1993
 Octapole moment (field-independent basis, Debye-Ang**2):
  XXX=             30.8967  YYY=              0.0666  ZZZ=             -0.6477  XYY=              6.0007
  XXY=             -7.2638  XXZ=             -3.9353  XZZ=              2.6062  YZZ=              0.4739
  YYZ=             -0.1003  XYZ=              0.5116
 Hexadecapole moment (field-independent basis, Debye-Ang**3):
 XXXX=          -1100.9433 YYYY=           -279.3826 ZZZZ=           -180.5713 XXXY=            -21.0595
 XXXZ=            -10.4926 YYYX=              4.8963 YYYZ=             -0.4024 ZZZX=             -5.2341
 ZZZY=              5.1894 XXYY=           -241.9830 XXZZ=           -215.8001 YYZZ=            -78.1382
 XXYZ=              5.8350 YYXZ=             -2.7665 ZZXY=             -4.3911
 N-N= 3.279197039217D+02 E-N=-1.469480098670D+03  KE= 3.465021674424D+02
  Exact polarizability: 110.397   3.840  71.903  -6.448   0.146  70.580
 Approx polarizability:  93.416   4.505  80.311  -5.944   1.645  83.654
                          Isotropic Fermi Contact Couplings
        Atom                 a.u.       MegaHertz       Gauss      10(-4) cm-1
     1  C(13)             -0.00965     -10.84884      -3.87114      -3.61878
     2  H(1)               0.00504      22.51514       8.03396       7.51024
     3  C(13)              0.09171     103.09536      36.78699      34.38891
     4  H(1)              -0.00364     -16.28389      -5.81050      -5.43172
     5  H(1)              -0.00411     -18.37689      -6.55733      -6.12987
     6  C(13)             -0.00338      -3.79492      -1.35412      -1.26585
     7  H(1)               0.00223       9.97951       3.56094       3.32881
     8  H(1)              -0.00010      -0.44013      -0.15705      -0.14681
     9  H(1)               0.00055       2.44422       0.87216       0.81530
    10  O(17)              0.01446      -8.76779      -3.12857      -2.92462
    11  O(17)              0.04763     -28.87336     -10.30273      -9.63112
    12  H(1)              -0.02242    -100.22289     -35.76202     -33.43076
    13  C(13)              0.04089      45.96265      16.40062      15.33149
    14  H(1)              -0.00061      -2.71755      -0.96969      -0.90648
    15  H(1)               0.00408      18.25148       6.51258       6.08804
    16  H(1)              -0.00031      -1.37942      -0.49221      -0.46012
    17  C(13)              0.00125       1.40954       0.50296       0.47017
    18  H(1)              -0.00019      -0.84691      -0.30220      -0.28250
    19  H(1)              -0.00029      -1.29841      -0.46331      -0.43310
    20  H(1)              -0.00016      -0.71264      -0.25429      -0.23771
 --------------------------------------------------------
       Center         ----  Spin Dipole Couplings  ----
                      3XX-RR        3YY-RR        3ZZ-RR
 --------------------------------------------------------
     1   Atom        0.022934     -0.017250     -0.005684
     2   Atom       -0.005194     -0.007558      0.012751
     3   Atom        0.496938     -0.142059     -0.354880
     4   Atom       -0.001428     -0.011116      0.012544
     5   Atom        0.000810      0.041435     -0.042244
     6   Atom        0.000767      0.001918     -0.002685
     7   Atom        0.000103      0.004958     -0.005061
     8   Atom        0.000587     -0.000097     -0.000490
     9   Atom        0.005281     -0.001165     -0.004116
    10   Atom        0.230757     -0.026601     -0.204156
    11   Atom        0.910601     -0.028982     -0.881619
    12   Atom        0.151191     -0.043794     -0.107397
    13   Atom        0.036067     -0.013841     -0.022226
    14   Atom        0.009544     -0.006648     -0.002896
    15   Atom        0.000725     -0.003713      0.002989
    16   Atom       -0.001197      0.005288     -0.004091
    17   Atom       -0.000152      0.002379     -0.002228
    18   Atom       -0.001196      0.003219     -0.002023
    19   Atom       -0.000011     -0.000414      0.000425
    20   Atom        0.001845      0.001920     -0.003764
 --------------------------------------------------------
                        XY            XZ            YZ
 --------------------------------------------------------
     1   Atom        0.006337      0.016897     -0.000762
     2   Atom        0.001923      0.002807      0.003485
     3   Atom        0.440683     -0.107111     -0.053805
     4   Atom        0.004140     -0.027509      0.035472
     5   Atom       -0.010615     -0.000203     -0.017271
     6   Atom       -0.006168     -0.005016      0.002137
     7   Atom       -0.004951     -0.002388      0.002288
     8   Atom       -0.002890     -0.003329      0.003053
     9   Atom       -0.005542     -0.001631      0.000775
    10   Atom        0.239397     -0.115017     -0.084485
    11   Atom        1.245894     -0.055944     -0.039466
    12   Atom        0.146318     -0.057675     -0.029008
    13   Atom        0.029979      0.021802      0.010580
    14   Atom        0.001069     -0.000883      0.000579
    15   Atom        0.001164      0.004352     -0.000956
    16   Atom        0.005898      0.003541      0.002481
    17   Atom       -0.006511      0.005080     -0.005889
    18   Atom       -0.003538      0.002989     -0.006347
    19   Atom       -0.001639      0.002616     -0.002610
    20   Atom       -0.004986      0.001650     -0.001772
 --------------------------------------------------------


 ---------------------------------------------------------------------------------
              Anisotropic Spin Dipole Couplings in Principal Axis System
 ---------------------------------------------------------------------------------

       Atom             a.u.   MegaHertz   Gauss  10(-4) cm-1        Axes

              Baa    -0.0197    -2.639    -0.942    -0.880 -0.2859  0.8739  0.3932
     1 C(13)  Bbb    -0.0117    -1.571    -0.561    -0.524 -0.3147 -0.4732  0.8228
              Bcc     0.0314     4.210     1.502     1.404  0.9051  0.1115  0.4104
 
              Baa    -0.0088    -4.689    -1.673    -1.564 -0.4121  0.9064 -0.0929
     2 H(1)   Bbb    -0.0050    -2.692    -0.961    -0.898  0.8968  0.3855 -0.2169
              Bcc     0.0138     7.382     2.634     2.462  0.1608  0.1727  0.9718
 
              Baa    -0.3684   -49.438   -17.641   -16.491  0.2848 -0.3415  0.8957
     3 C(13)  Bbb    -0.3665   -49.183   -17.550   -16.406 -0.3672  0.8242  0.4310
              Bcc     0.7349    98.622    35.191    32.897  0.8855  0.4516 -0.1093
 
              Baa    -0.0461   -24.612    -8.782    -8.210 -0.4348  0.6658 -0.6064
     4 H(1)   Bbb    -0.0010    -0.519    -0.185    -0.173  0.8017  0.5928  0.0760
              Bcc     0.0471    25.130     8.967     8.383 -0.4100  0.4531  0.7915
 
              Baa    -0.0458   -24.427    -8.716    -8.148  0.0498  0.1998  0.9786
     5 H(1)   Bbb    -0.0014    -0.747    -0.267    -0.249  0.9746  0.2047 -0.0914
              Bcc     0.0472    25.174     8.983     8.397 -0.2185  0.9582 -0.1846
 
              Baa    -0.0069    -0.926    -0.330    -0.309  0.6857  0.3214  0.6530
     6 C(13)  Bbb    -0.0027    -0.362    -0.129    -0.121  0.2954  0.6971 -0.6533
              Bcc     0.0096     1.288     0.460     0.430  0.6652 -0.6409 -0.3831
 
              Baa    -0.0060    -3.208    -1.145    -1.070  0.3293 -0.0481  0.9430
     7 H(1)   Bbb    -0.0028    -1.482    -0.529    -0.494  0.7824  0.5729 -0.2440
              Bcc     0.0088     4.690     1.673     1.564 -0.5285  0.8182  0.2263
 
              Baa    -0.0035    -1.890    -0.674    -0.630  0.3727 -0.4205  0.8272
     8 H(1)   Bbb    -0.0027    -1.420    -0.507    -0.474  0.6935  0.7185  0.0528
              Bcc     0.0062     3.310     1.181     1.104  0.6166 -0.5540 -0.5594
 
              Baa    -0.0045    -2.401    -0.857    -0.801  0.4294  0.5463  0.7192
     9 H(1)   Bbb    -0.0042    -2.251    -0.803    -0.751 -0.2783 -0.6775  0.6808
              Bcc     0.0087     4.653     1.660     1.552  0.8592 -0.4925 -0.1389
 
              Baa    -0.2397    17.342     6.188     5.785  0.0955  0.2724  0.9574
    10 O(17)  Bbb    -0.1673    12.102     4.318     4.037 -0.5446  0.8194 -0.1788
              Bcc     0.4069   -29.444   -10.506    -9.821  0.8333  0.5043 -0.2266
 
              Baa    -0.8908    64.455    22.999    21.500 -0.5649  0.8207  0.0856
    11 O(17)  Bbb    -0.8833    63.917    22.807    21.320  0.0698 -0.0558  0.9960
              Bcc     1.7741  -128.373   -45.807   -42.820  0.8222  0.5687 -0.0258
 
              Baa    -0.1229   -65.556   -23.392   -21.867 -0.4952  0.7659 -0.4101
    12 H(1)   Bbb    -0.1186   -63.276   -22.578   -21.107 -0.0507  0.4458  0.8937
              Bcc     0.2415   128.832    45.971    42.974  0.8673  0.4634 -0.1819
 
              Baa    -0.0296    -3.978    -1.420    -1.327 -0.1846 -0.2804  0.9420
    13 C(13)  Bbb    -0.0278    -3.736    -1.333    -1.246 -0.4650  0.8693  0.1677
              Bcc     0.0575     7.714     2.753     2.573  0.8659  0.4071  0.2909
 
              Baa    -0.0068    -3.640    -1.299    -1.214 -0.0730  0.9842 -0.1616
    14 H(1)   Bbb    -0.0028    -1.520    -0.542    -0.507  0.0558  0.1658  0.9846
              Bcc     0.0097     5.160     1.841     1.721  0.9958  0.0629 -0.0671
 
              Baa    -0.0048    -2.548    -0.909    -0.850 -0.4540  0.8172  0.3551
    15 H(1)   Bbb    -0.0016    -0.842    -0.301    -0.281  0.6485  0.5763 -0.4973
              Bcc     0.0064     3.390     1.210     1.131  0.6111 -0.0045  0.7916
 
              Baa    -0.0067    -3.568    -1.273    -1.190 -0.6579  0.1722  0.7331
    16 H(1)   Bbb    -0.0032    -1.715    -0.612    -0.572  0.5466 -0.5606  0.6221
              Bcc     0.0099     5.283     1.885     1.762  0.5181  0.8100  0.2747
 
              Baa    -0.0065    -0.872    -0.311    -0.291 -0.4196  0.2675  0.8674
    17 C(13)  Bbb    -0.0055    -0.737    -0.263    -0.246  0.7129  0.6886  0.1326
              Bcc     0.0120     1.610     0.574     0.537 -0.5618  0.6740 -0.4797
 
              Baa    -0.0063    -3.384    -1.208    -1.129 -0.1415  0.5106  0.8481
    18 H(1)   Bbb    -0.0031    -1.662    -0.593    -0.554  0.9068  0.4106 -0.0959
              Bcc     0.0095     5.046     1.801     1.683 -0.3971  0.7555 -0.5211
 
              Baa    -0.0028    -1.505    -0.537    -0.502 -0.3690  0.5561  0.7447
    19 H(1)   Bbb    -0.0018    -0.980    -0.350    -0.327  0.7497  0.6517 -0.1152
              Bcc     0.0047     2.486     0.887     0.829  0.5493 -0.5158  0.6574
 
              Baa    -0.0043    -2.291    -0.818    -0.764 -0.1041  0.1947  0.9753
    20 H(1)   Bbb    -0.0031    -1.654    -0.590    -0.552  0.7189  0.6924 -0.0615
              Bcc     0.0074     3.945     1.408     1.316 -0.6873  0.6947 -0.2120
 

 ---------------------------------------------------------------------------------

 Calling FoFJK, ICntrl=  10100127 FMM=F ISym2X=0 I1Cent= 0 IOpClX= 1 NMat=1 NMatS=1 NMatT=0.
 ***** Axes restored to original set *****
 -------------------------------------------------------------------
 Center     Atomic                   Forces (Hartrees/Bohr)
 Number     Number              X              Y              Z
 -------------------------------------------------------------------
      1        6           0.000098655   -0.000192795   -0.000006646
      2        1           0.000000190    0.000000790    0.000001283
      3        6          -0.000127214    0.000237798   -0.000021334
      4        1           0.000000387   -0.000000569    0.000001993
      5        1          -0.000002142    0.000000083   -0.000003181
      6        6          -0.000000445    0.000000978    0.000000163
      7        1           0.000000319   -0.000000227    0.000001094
      8        1           0.000000597   -0.000000204    0.000000429
      9        1           0.000000734    0.000000031   -0.000000011
     10        8          -0.000124755    0.000119762   -0.000166038
     11        8           0.000152226   -0.000157553    0.000186593
     12        1           0.000002536   -0.000000742    0.000000740
     13        6          -0.000002517   -0.000000068    0.000000402
     14        1           0.000002156   -0.000000225   -0.000000833
     15        1           0.000002457   -0.000000260    0.000001819
     16        1          -0.000000469   -0.000001869    0.000001062
     17        6           0.000000111   -0.000006140    0.000008775
     18        1          -0.000002348   -0.000002512   -0.000003790
     19        1           0.000000269    0.000002033   -0.000001692
     20        1          -0.000000747    0.000001689   -0.000000828
 -------------------------------------------------------------------
 Cartesian Forces:  Max     0.000237798 RMS     0.000065908
 FormGI is forming the generalized inverse of G from B-inverse, IUseBI=4.

 GradGradGradGradGradGradGradGradGradGradGradGradGradGradGradGradGradGrad
 Berny optimization.
 Internal  Forces:  Max     0.000312945 RMS     0.000047467
 Search for a saddle point.
 Step number   1 out of a maximum of  120
 All quantities printed in internal units (Hartrees-Bohrs-Radians)
 Swapping is turned off.
 Second derivative matrix not updated -- analytic derivatives used.
 ITU=  0
     Eigenvalues ---   -0.07159   0.00072   0.00208   0.00261   0.00306
     Eigenvalues ---    0.00619   0.01694   0.02497   0.03124   0.03333
     Eigenvalues ---    0.03524   0.03928   0.04131   0.04314   0.04589
     Eigenvalues ---    0.04625   0.04676   0.04710   0.07070   0.08490
     Eigenvalues ---    0.08525   0.09332   0.10582   0.11914   0.12075
     Eigenvalues ---    0.12443   0.12912   0.13110   0.14409   0.14936
     Eigenvalues ---    0.16296   0.16737   0.17272   0.18024   0.18264
     Eigenvalues ---    0.18592   0.25726   0.27634   0.28974   0.30970
     Eigenvalues ---    0.31943   0.33464   0.33521   0.33535   0.33673
     Eigenvalues ---    0.33766   0.34133   0.34442   0.34555   0.34585
     Eigenvalues ---    0.34811   0.34935   0.35530   0.40296
 Eigenvectors required to have negative eigenvalues:
                          R7        R13       R12       A20       D7
   1                    0.69508  -0.66129   0.14937  -0.07684  -0.07575
                          D2        D4        D5        D1        D8
   1                    0.07460  -0.07306   0.06715  -0.06561   0.06445
 RFO step:  Lambda0=2.402578206D-10 Lambda=-1.41106042D-04.
 Linear search not attempted -- option 19 set.
 Iteration  1 RMS(Cart)=  0.12555877 RMS(Int)=  0.00879217
 Iteration  2 RMS(Cart)=  0.02704646 RMS(Int)=  0.00020262
 Iteration  3 RMS(Cart)=  0.00035510 RMS(Int)=  0.00002402
 Iteration  4 RMS(Cart)=  0.00000008 RMS(Int)=  0.00002402
 Variable       Old X    -DE/DX   Delta X   Delta X   Delta X     New X
                                 (Linear)    (Quad)   (Total)
    R1        2.06586  -0.00000   0.00000  -0.00003  -0.00003   2.06583
    R2        2.84220   0.00000   0.00000  -0.00046  -0.00046   2.84174
    R3        2.90410   0.00000   0.00000   0.00044   0.00044   2.90454
    R4        2.88501  -0.00000   0.00000  -0.00003  -0.00003   2.88498
    R5        2.05577   0.00000   0.00000  -0.00009  -0.00009   2.05568
    R6        2.05333  -0.00000   0.00000  -0.00016  -0.00016   2.05317
    R7        2.57792   0.00000   0.00000   0.00470   0.00470   2.58262
    R8        2.06226   0.00000   0.00000   0.00034   0.00034   2.06260
    R9        2.05623   0.00000   0.00000   0.00001   0.00001   2.05624
   R10        2.05713   0.00000   0.00000  -0.00011  -0.00011   2.05703
   R11        2.68364   0.00000   0.00000  -0.00001  -0.00001   2.68362
   R12        2.66584  -0.00000   0.00000  -0.00011  -0.00011   2.66573
   R13        2.20084   0.00000   0.00000  -0.00180  -0.00180   2.19904
   R14        2.06079  -0.00000   0.00000  -0.00013  -0.00013   2.06066
   R15        2.06020  -0.00000   0.00000  -0.00001  -0.00001   2.06020
   R16        2.05850   0.00000   0.00000   0.00001   0.00001   2.05851
   R17        2.05606  -0.00000   0.00000  -0.00028  -0.00028   2.05579
   R18        2.05861   0.00000   0.00000   0.00001   0.00001   2.05862
   R19        2.06279   0.00000   0.00000  -0.00008  -0.00008   2.06272
    A1        1.88433  -0.00000   0.00000   0.00313   0.00313   1.88745
    A2        1.88198   0.00000   0.00000  -0.00074  -0.00074   1.88124
    A3        1.89042  -0.00000   0.00000  -0.00225  -0.00225   1.88818
    A4        1.92110  -0.00001   0.00000  -0.00026  -0.00026   1.92084
    A5        1.94416   0.00001   0.00000  -0.00016  -0.00015   1.94400
    A6        1.93965  -0.00000   0.00000   0.00031   0.00031   1.93996
    A7        2.02329   0.00014   0.00000  -0.00138  -0.00147   2.02183
    A8        2.02904  -0.00015   0.00000   0.00104   0.00109   2.03013
    A9        1.82291   0.00001   0.00000   0.00312   0.00311   1.82602
   A10        1.97037   0.00000   0.00000  -0.00012  -0.00009   1.97027
   A11        1.77414  -0.00001   0.00000  -0.00727  -0.00726   1.76688
   A12        1.79968   0.00000   0.00000   0.00456   0.00455   1.80423
   A13        1.91802   0.00000   0.00000  -0.00009  -0.00009   1.91793
   A14        1.91666  -0.00000   0.00000   0.00017   0.00017   1.91682
   A15        1.93501   0.00000   0.00000  -0.00061  -0.00061   1.93440
   A16        1.92508  -0.00000   0.00000   0.00024   0.00024   1.92532
   A17        1.83690   0.00000   0.00000   0.00039   0.00039   1.83728
   A18        1.93097  -0.00000   0.00000  -0.00009  -0.00009   1.93088
   A19        1.88066  -0.00001   0.00000  -0.00004  -0.00004   1.88062
   A20        1.81374   0.00000   0.00000   0.00210   0.00210   1.81584
[...]
 62,0.00002894,-0.00003121,-0.00001276,0.00049465,0.00025028,-0.0000293
 0,-0.00010165,-0.00005956,-0.00003214,-0.00005101,-0.00001487,-0.00003
 690,-0.06811786,0.03181341,0.05252480,-0.00363685,0.00838184,0.0138685
 5,0.07143179,0.00030339,0.00019501,-0.00021941,-0.00000727,-0.00001300
 ,0.00003804,-0.00072929,-0.00039947,0.00025380,0.00005454,0.00013292,-
 0.00002439,0.00020704,0.00011544,-0.00010561,0.03304210,-0.11332277,-0
 .10352222,-0.00509163,0.01185243,0.01517108,-0.04499204,0.12893507,0.0
 0004205,-0.00008383,-0.00008760,-0.00001402,-0.00000364,-0.00000878,-0
 .00004914,-0.00003492,-0.00006744,0.00006084,-0.00001767,0.00002648,-0
 .00010384,-0.00006223,0.00007686,0.05938930,-0.11332306,-0.23806341,0.
 00333249,-0.01008806,-0.01377160,-0.06330727,0.12069533,0.24895401,-0.
 00005223,-0.00010762,0.00014589,0.00011080,0.00009538,0.00002817,0.001
 06194,0.00053002,-0.00015279,-0.00017074,-0.00006644,0.00004634,-0.000
 23986,-0.00007880,-0.00000174,-0.21493879,-0.08656742,-0.09120395,-0.0
 1222902,-0.00872704,-0.00790209,0.00982580,0.00304776,0.00489719,0.236
 91813,0.00007807,-0.00015444,-0.00015234,-0.00005918,-0.00004195,0.000
 12958,-0.00021948,-0.00024532,0.00008600,0.00003143,0.00007297,-0.0000
 2109,0.00002519,0.00003670,-0.00011469,-0.09249502,-0.09440734,-0.0537
 3798,-0.01409250,-0.00542607,-0.00920881,-0.01279187,-0.00478207,-0.00
 512696,0.08701287,0.09933303,-0.00028400,-0.00009488,0.00025797,0.0000
 5190,0.00006111,-0.00013019,0.00094277,0.00077020,-0.00044424,-0.00013
 788,-0.00015194,0.00005864,-0.00007672,-0.00006781,0.00011972,-0.09362
 436,-0.04760438,-0.10577537,0.01717687,0.00833738,0.01002586,-0.020660
 00,-0.00963777,-0.00976188,0.10965362,0.04780085,0.11147735,-0.0001087
 7,-0.00065258,0.00103774,-0.00042236,0.00067843,0.00029024,0.00611602,
 0.00317486,-0.00022070,-0.00089441,-0.00098737,0.00026757,-0.00140022,
 -0.00065815,0.00048036,-0.11367299,0.05568535,-0.05941148,0.01095138,0
 .00100453,0.00040193,-0.00720570,0.00883726,-0.00246992,-0.02246982,0.
 03430684,-0.01520145,0.18809055,0.00510066,0.00150061,-0.00480072,-0.0
 0050823,0.00091698,0.00140890,-0.02560520,-0.01358136,0.00618654,0.003
 05651,0.00210369,-0.00066083,0.00348150,0.00144610,-0.00096613,0.06032
 688,-0.12876736,0.06929957,0.02318983,-0.02977307,0.01392882,0.0130574
 2,-0.01736484,0.00460159,0.00878927,0.00168486,0.00077434,-0.14104898,
 0.26686452,0.00423509,0.00152435,-0.00401923,-0.00013020,0.00083700,0.
 00089608,-0.02586089,-0.01251347,0.00472088,0.00299295,0.00217420,-0.0
 0093011,0.00412430,0.00130668,-0.00106826,-0.03753972,0.03777001,-0.11
 688958,-0.01693429,0.02131705,-0.00889551,0.01819835,-0.02352178,0.008
 71423,-0.01422888,0.01713394,-0.00723048,0.02055967,0.01235342,0.30150
 093,0.00720889,0.00358464,-0.00219554,-0.00024557,0.00035489,0.0002998
 4,-0.10924253,-0.05516491,0.03123179,0.00657812,0.00469004,-0.00194756
 ,0.00707610,0.00165158,-0.00134543,-0.01152708,0.02663937,0.02927110,0
 .00270024,-0.00394030,-0.00074621,-0.00249796,0.00497795,-0.00177665,0
 .00393677,-0.00209139,0.00333880,-0.04633484,0.00918142,-0.00037522,0.
 10299867,-0.00157982,-0.00053481,0.00402256,0.00021129,-0.00069236,-0.
 00089514,-0.02732245,-0.01016194,0.01015605,-0.00042923,0.00084189,0.0
 0020424,-0.00076584,0.00009582,-0.00045815,0.01393946,-0.03436495,-0.0
 3880667,-0.00177333,0.00396038,-0.00231618,0.00444894,-0.00475108,0.00
 297339,-0.00311604,0.00384759,0.00029037,0.02667767,-0.10456041,-0.066
 96874,0.00571225,0.18485098,-0.00901671,-0.00343080,0.00617464,0.00063
 439,-0.00081537,-0.00125727,0.07277928,0.03666471,-0.01525311,-0.00611
 065,-0.00381270,0.00159875,-0.00691571,-0.00278343,0.00201430,0.012399
 13,-0.01455363,-0.00087599,-0.00345528,0.00350986,0.00092332,-0.000642
 53,0.00070275,0.00395641,-0.00191557,0.00362338,0.00117567,0.03061421,
 -0.09178342,-0.14763514,-0.02091647,0.10649833,0.14138230,-0.02326735,
 -0.01145603,0.00459053,0.00104028,0.00007034,-0.00017996,0.09067364,0.
 05536338,-0.02814732,-0.01737477,-0.00937962,0.00559921,-0.00972164,-0
 .00182507,0.00163608,0.00589310,-0.01101998,0.00266106,-0.00093146,0.0
 0309874,-0.00173211,0.00009000,0.00035738,0.00000003,-0.00169043,0.000
 33790,-0.00122129,-0.01167771,0.04087657,0.04486866,0.03994703,-0.0161
 2173,-0.06699702,-0.07364810,-0.01159814,-0.00604536,0.00122032,-0.000
 14006,-0.00029252,-0.00040897,0.04960538,0.00253550,-0.01303508,0.0041
 0638,-0.00074149,-0.00197353,-0.01334428,-0.00675654,0.00465511,0.0050
 2752,-0.00255757,-0.00251009,-0.00103268,0.00080898,-0.00009111,-0.000
 01838,-0.00062651,0.00043763,-0.00077143,-0.00008376,-0.00033631,0.013
 18033,0.01883117,0.00795859,0.00395576,-0.03863267,-0.03274514,-0.0494
 5370,0.03374336,-0.00343732,-0.00212437,-0.00216074,-0.00077502,-0.000
 34645,0.00000258,-0.04444288,-0.02291256,-0.00947930,0.01038833,0.0048
 5923,-0.00312282,0.01097072,0.00531816,-0.00373315,-0.00356857,0.00471
 295,-0.00083785,0.00046046,-0.00111027,0.00120576,0.00005644,0.0000071
 8,-0.00003135,0.00072048,-0.00041404,0.00034974,0.02396757,-0.01449825
 ,-0.03308121,-0.03714402,-0.01158411,0.01315775,0.04495190,0.03881883,
 0.03765055,-0.13858998,-0.03833516,0.02242038,-0.02179929,-0.01499106,
 0.00486589,-0.02088339,-0.01333115,-0.00753947,0.00120147,0.00076208,0
 .00060641,0.00134088,0.00043421,0.00074330,-0.00009960,0.00008997,-0.0
 0001268,0.00006063,-0.00001611,0.00004596,0.00004414,-0.00003912,-0.00
 002506,0.00001468,0.00000590,0.00001737,-0.00045835,-0.00048920,-0.000
 23419,-0.00025670,0.00027498,0.00098696,0.00155463,0.00044503,-0.00193
 671,0.48378675,-0.03660567,-0.09814738,0.01470425,0.01426972,0.0087767
 6,-0.00272826,-0.01494203,-0.00988695,-0.00587142,0.00053253,0.0004373
 3,0.00029754,0.00101596,0.00065155,0.00078724,-0.00027863,0.00013547,-
 0.00008761,-0.00001278,0.00003480,-0.00004048,-0.00000162,-0.00004636,
 0.00000222,0.00003389,0.00004780,0.00002484,0.00014780,0.00017991,0.00
 020774,-0.00010539,-0.00007062,0.00017719,0.00093378,0.00026960,-0.001
 32542,-0.05694959,0.53926922,0.00861582,0.00650634,-0.07306083,0.01523
 309,0.00948896,-0.00281847,-0.01990506,-0.01366365,-0.00071046,0.00072
 691,0.00071159,-0.00039278,0.00049153,-0.00026991,0.00036837,0.0008745
 3,-0.00124170,0.00066248,-0.00016440,0.00023159,-0.00029846,-0.0001911
 5,0.00022276,0.00003523,-0.00012757,0.00001905,-0.00019088,-0.00035613
 ,0.00405702,0.00342786,0.00332595,-0.00239697,-0.00556699,-0.00775072,
 -0.00344974,0.00148141,0.01929375,0.00640459,0.56888849,-0.02139954,0.
 01457246,0.01311424,-0.00403316,-0.00366245,0.00064752,0.00122666,0.00
 135695,0.00137621,-0.00017867,-0.00055357,-0.00052693,-0.00008407,-0.0
 0003554,-0.00008012,0.00007077,0.00004830,-0.00004183,0.00002675,-0.00
 002717,0.00006268,0.00002513,-0.00000431,-0.00000429,-0.00001878,-0.00
 002624,0.00000660,-0.00008741,-0.00042399,-0.00035969,-0.00010065,0.00
 029085,0.00033722,0.00021079,0.00001333,0.00008021,-0.16509908,0.09896
 135,0.08564288,0.18286614,-0.01302589,0.00921484,0.00894153,-0.0036581
 2,-0.00115214,0.00101538,0.00005598,0.00102008,0.00110098,0.00027072,-
 0.00005760,-0.00002176,0.00003841,-0.00009919,-0.00009840,-0.00000606,
 -0.00001051,-0.00000078,0.00001513,-0.00001367,0.00000305,0.00000272,-
 0.00000879,0.00000316,0.00000486,0.00000922,-0.00000061,-0.00009522,-0
 .00026052,-0.00023946,-0.00022587,0.00011157,0.00032600,0.00038366,0.0
 0023074,0.00002564,0.09941532,-0.12907943,-0.07112362,-0.10623247,0.13
 808245,0.00400508,-0.00295334,-0.00369651,0.00076735,0.00098456,0.0007
 3510,-0.00120664,0.00045415,0.00048047,0.00023837,0.00005239,0.0004181
 5,-0.00001632,0.00008186,0.00002357,-0.00007254,0.00005265,-0.00003118
 ,-0.00000058,-0.00000284,-0.00000366,-0.00000303,-0.00000974,0.0000014
 6,0.00001201,0.00000759,0.00001062,0.00008537,-0.00010902,-0.00011737,
 -0.00015444,0.00003928,0.00018364,0.00020965,0.00016950,-0.00012019,0.
 08555851,-0.07110838,-0.11050109,-0.09597506,0.07801035,0.11611599,-0.
 01353392,-0.00971297,-0.02393189,0.00098375,0.00098215,-0.00021724,-0.
 00255091,-0.00237651,0.00143539,0.00007966,-0.00009747,-0.00029425,0.0
 0015786,0.00012684,0.00019529,0.00034937,-0.00039953,0.00015665,-0.000
 05199,0.00006086,-0.00008664,-0.00007865,0.00007167,0.00002274,-0.0000
 5606,0.00000776,-0.00005667,-0.00017719,0.00120216,0.00107498,0.000926
 53,-0.00071516,-0.00159351,-0.00210593,-0.00104597,0.00030020,-0.08607
 717,-0.02959206,-0.09040925,0.00951706,0.00610093,0.02011278,0.0946777
 0,-0.00771510,-0.00693733,-0.01482784,0.00068346,0.00061189,0.00034468
 ,-0.00224005,-0.00089531,0.00117546,0.00024952,0.00023104,0.00010438,0
 .00000822,0.00014326,-0.00025763,0.00021539,-0.00027999,0.00013262,-0.
 00002712,0.00004289,-0.00004767,-0.00003612,0.00004954,0.00000486,-0.0
 0003593,0.00000119,-0.00004157,-0.00017099,0.00078507,0.00071800,0.000
 57462,-0.00051265,-0.00101828,-0.00136098,-0.00043403,0.00008529,-0.02
 940686,-0.07083657,-0.06899289,-0.00787749,-0.00576449,-0.01565649,0.0
 3617928,0.07401211,0.00433529,0.00348039,0.00469503,-0.00079720,-0.000
 18402,0.00051657,-0.00058386,0.00032988,0.00080734,0.00002319,0.000074
 62,0.00022478,0.00019724,-0.00006333,0.00017047,0.00007805,-0.00002873
 ,-0.00003279,-0.00000788,-0.00000178,-0.00000110,-0.00001003,-0.000001
 45,0.00000778,-0.00001760,0.00000721,-0.00000201,-0.00013584,0.0000575
 4,0.00013764,-0.00021835,-0.00014783,0.00013508,0.00052146,0.00018112,
 -0.00031936,-0.09044767,-0.06916687,-0.24656801,-0.00628645,-0.0034783
 3,-0.01313610,0.09879121,0.07517695,0.26699806,0.00615873,-0.02316226,
 0.01495310,0.00126320,0.00082225,-0.00005727,0.00105620,-0.00021040,0.
 00140121,-0.00012050,0.00002758,-0.00010592,-0.00008972,0.00017091,-0.
 00039157,-0.00007592,-0.00001418,0.00002686,0.00001143,0.00000264,-0.0
 0002143,0.00000795,-0.00000939,-0.00000334,0.00001694,0.00002055,-0.00
 000554,0.00006230,-0.00020877,-0.00026208,-0.00025857,0.00020446,0.000
 30967,0.00050617,0.00021470,-0.00001187,-0.06029405,0.04822140,-0.0326
 0569,-0.00483905,0.01694810,-0.01346687,-0.00347424,0.01046780,-0.0058
 7559,0.06457306,0.00439737,-0.01398376,0.00790961,-0.00006151,0.000911
 79,-0.00009761,0.00114139,0.00025763,0.00090453,-0.00006996,0.00001949
 ,-0.00001958,-0.00047045,0.00011176,-0.00065842,-0.00001372,-0.0000938
 4,0.00005761,0.00001489,0.00001066,-0.00001312,0.00000810,0.00000145,-
 0.00000367,-0.00000189,0.00001448,-0.00001546,0.00001184,-0.00013550,-
 0.00024832,-0.00012385,0.00024867,0.00013660,0.00009178,0.00012529,0.0
 0003277,0.04728256,-0.21894740,0.11720212,0.00330751,-0.01414302,0.010
 12619,-0.00213835,0.00909852,-0.00588656,-0.04932147,0.23769490,-0.001
 44619,0.00355085,-0.00448182,0.00002932,-0.00009202,-0.00016736,-0.000
 35170,-0.00120028,0.00048892,-0.00001598,-0.00004731,0.00003528,0.0000
 7713,0.00009648,0.00036522,-0.00006775,0.00014676,-0.00006983,0.000005
 42,-0.00001370,0.00004809,0.00001961,-0.00000817,-0.00001186,0.0000081
 1,-0.00002208,0.00002408,0.00004928,-0.00015448,-0.00007004,-0.0000668
 6,0.00000179,0.00020394,0.00027298,0.00006227,-0.00016745,-0.03227386,
 0.11764610,-0.12866974,0.00302513,-0.01395616,0.00960237,-0.00568576,0
 .02353056,-0.01478446,0.03490584,-0.13037925,0.13671230,-0.08230927,0.
 02248552,-0.01339606,-0.00485872,0.01795427,-0.01350549,-0.00557581,0.
 01230129,-0.01210420,0.00060296,-0.00073395,0.00149236,-0.00052702,-0.
 00077404,-0.00239911,-0.00010479,0.00042988,-0.00012214,0.00006000,-0.
 00013442,0.00014384,0.00004028,-0.00004359,-0.00000311,0.00002947,-0.0
 0009085,0.00007945,0.00004622,-0.00006342,0.00018615,0.00031113,-0.000
 40776,0.00006401,0.00012856,0.00075917,-0.00090875,0.00418703,-0.02556
 805,0.01765480,0.00111906,-0.00043829,0.00009494,0.00103530,0.00033952
 ,0.00044354,-0.00498334,-0.00447229,0.00180794,0.57698214,0.01929521,-
 0.14899009,0.04818342,0.00497079,-0.01806270,0.01313159,0.00176613,0.0
 0850006,-0.00130681,-0.00070919,0.00075580,-0.00106297,-0.00252504,-0.
 00007094,-0.00356276,0.00027151,0.00002578,0.00023086,-0.00004046,-0.0
 0001153,-0.00004562,-0.00004674,0.00003221,0.00000010,0.00004630,-0.00
 006996,-0.00001553,-0.00020131,0.00058010,0.00110362,0.00153597,-0.000
 69809,-0.00126070,-0.00197184,-0.00035880,0.00014502,0.00055860,-0.021
 32323,0.01392803,0.00141526,0.00191094,-0.00081371,0.00121443,0.000610
 10,0.00000596,-0.00257624,-0.00109822,0.00029245,0.02693980,0.50801992
 ,-0.01015800,0.04731103,-0.11302726,0.00267500,-0.01167709,0.00888978,
 -0.01186479,0.02520198,-0.02490535,0.00038537,0.00106560,0.00170926,-0
 .00262979,-0.00129532,-0.00429765,-0.00006437,0.00008425,0.00004517,-0
 .00006475,-0.00001503,-0.00011473,-0.00006041,0.00001452,0.00002805,0.
 00005289,0.00003447,-0.00000793,0.00042309,-0.00018046,-0.00010833,-0.
 00128417,0.00035751,-0.00023856,0.00138996,0.00050737,-0.00022612,0.00
 087366,0.00912616,-0.00480363,-0.00085054,0.00003207,-0.00006125,-0.00
 074200,-0.00131776,0.00068312,0.00030742,0.00010892,0.00022546,-0.0096
 0161,0.04714956,0.54485280,0.00730993,0.00492939,-0.00186688,0.0005072
 9,-0.00047108,0.00035413,0.00062004,0.00013645,0.00015948,-0.00013417,
 -0.00012543,0.00012575,0.00006018,0.00008141,0.00011881,-0.00012327,0.
 00014333,0.00002039,0.00002609,-0.00003299,0.00001800,0.00001593,-0.00
 001471,-0.00000470,0.00002275,-0.00001532,0.00003833,-0.00036136,0.000
 25988,-0.00007703,-0.00071396,-0.00004118,-0.00038773,0.00018859,0.000
 06423,-0.00020429,0.00030886,0.00105456,-0.00098605,0.00020961,0.00008
 164,-0.00026764,-0.00004229,0.00017368,0.00004470,0.00051067,0.0003322
 1,-0.00019420,-0.23653893,-0.11869616,0.04249736,0.25431415,-0.0221094
 2,-0.01361937,0.00427537,-0.00028841,0.00051572,-0.00080164,-0.0012242
 4,0.00045160,-0.00102227,0.00012143,0.00005489,0.00016973,0.00021441,0
 .00000307,-0.00022937,0.00001219,-0.00038030,-0.00009285,0.00001492,0.
 00004904,-0.00004834,0.00002350,-0.00001275,0.00002320,-0.00008643,0.0
 0010917,-0.00006788,-0.00002028,-0.00038807,-0.00060616,-0.00074561,0.
 00065630,0.00045676,0.00080593,0.00025205,0.00030292,0.00241388,-0.004
 16809,0.00361003,-0.00010056,0.00013369,0.00016928,0.00047154,0.000326
 87,-0.00009196,-0.00155259,-0.00078416,0.00064367,-0.11602697,-0.12084
 468,0.02558729,0.12794673,0.13170778,0.01638405,0.00882640,-0.00477309
 ,-0.00025459,-0.00052380,0.00057872,0.00130790,0.00013374,0.00090472,0
 .00011049,-0.00007105,-0.00023711,-0.00007689,-0.00014557,0.00020432,-
 0.00006594,0.00017532,-0.00014568,0.00000330,-0.00000349,0.00003384,0.
 00006105,-0.00007506,-0.00000690,0.00000502,-0.00002197,0.00003120,-0.
 00024182,0.00021213,0.00025672,0.00022137,-0.00072044,0.00024924,-0.00
 026467,0.00068121,-0.00080966,-0.00176434,0.00305538,-0.00241580,-0.00
 039196,-0.00018366,0.00013302,0.00011690,0.00016491,0.00029104,0.00101
 511,0.00097790,0.00018091,0.04042957,0.02479589,-0.05770229,-0.0446331
 5,-0.03094796,0.06010296,-0.00418094,-0.00243413,-0.00581152,-0.000139
 07,-0.00021081,-0.00001538,0.00028335,0.00178224,-0.00035559,-0.000029
 34,-0.00018495,-0.00011554,0.00011100,-0.00019472,-0.00062157,0.000122
 80,-0.00014683,0.00002088,-0.00001512,0.00001208,-0.00002414,-0.000048
 46,0.00004295,0.00001387,-0.00001919,0.00002218,-0.00001885,0.00002434
 ,0.00008890,0.00010569,-0.00013650,0.00024433,-0.00039254,-0.00004062,
 -0.00017815,0.00040915,0.00026015,-0.00021568,0.00089938,0.00002487,0.
 00006918,0.00007972,0.00040956,-0.00000758,0.00002452,-0.00008487,0.00
 013809,0.00006698,-0.08916868,-0.03171802,-0.09070649,-0.00953352,-0.0
 0727633,-0.02461224,0.09282016,0.01031135,0.00794766,0.02504066,-0.000
 08676,0.00123032,-0.00076669,0.00059465,-0.00475832,0.00269604,-0.0001
 6637,0.00004349,0.00023531,0.00089657,0.00058459,0.00153842,-0.0000289
 1,-0.00003189,0.00003206,0.00000292,0.00001227,0.00000415,0.00000269,0
 .00001593,-0.00000601,-0.00000065,0.00000759,-0.00000879,0.00005923,-0
 .00018644,-0.00028821,-0.00037186,0.00035944,0.00012742,0.00023552,-0.
 00022896,0.00003483,0.00083912,0.00161389,0.00005942,-0.00013875,-0.00
 009795,-0.00005341,-0.00030963,-0.00016007,-0.00026682,0.00022397,0.00
 016506,-0.00026546,-0.03236082,-0.07177975,-0.07087741,-0.00490003,-0.
 00547238,-0.01507820,0.03397497,0.07700248,-0.00666511,-0.00700132,-0.
 01625449,-0.00011506,0.00005677,0.00079213,-0.00025394,0.00473959,-0.0
 0145280,0.00005955,0.00006338,0.00049238,-0.00079035,-0.00031641,-0.00
 094600,0.00017023,-0.00012675,0.00002012,-0.00001140,0.00000003,-0.000
 02248,-0.00003262,0.00002202,0.00001503,-0.00003035,0.00000268,-0.0000
 1721,-0.00018762,0.00040027,0.00040925,0.00043050,-0.00026942,-0.00044
 368,-0.00042795,-0.00016377,0.00026445,-0.00034612,-0.00147420,0.00032
 821,0.00002433,0.00006109,-0.00007183,0.00065249,0.00073441,0.00024822
 ,0.00007341,0.00006632,0.00049675,-0.09020151,-0.06873778,-0.24682522,
 0.00251442,0.00196595,0.00661585,0.10117772,0.07392799,0.26906429,-0.0
 0615054,0.00432787,0.00322219,0.00061348,0.00095878,-0.00132885,-0.000
 14810,0.00006877,0.00093875,-0.00004832,-0.00008145,-0.00074865,0.0002
 2476,-0.00031787,-0.00022555,0.00003162,-0.00013588,-0.00007069,0.0000
 1320,0.00001678,0.00001020,0.00002821,-0.00001068,0.00000281,-0.000052
 35,0.00003316,-0.00001894,-0.00001967,-0.00026321,-0.00034364,-0.00036
 912,0.00026832,0.00021885,0.00022520,0.00021097,0.00012398,0.00079838,
 -0.00089951,-0.00026262,0.00054358,0.00029527,-0.00000065,0.00001155,-
 0.00001328,-0.00007875,0.00005361,-0.00005226,-0.00016545,-0.16047559,
 0.10047102,0.07942217,-0.01664660,0.01740631,0.01265084,0.00934007,-0.
 00877720,-0.00604061,0.17202662,0.01896169,-0.01881522,-0.01265273,0.0
 0075895,-0.00383388,0.00393857,-0.00096441,0.00078397,-0.00138218,0.00
 015076,0.00060945,0.00069992,-0.00033876,0.00021487,0.00009323,-0.0000
 7731,-0.00009009,0.00000195,-0.00002607,0.00002845,-0.00006872,-0.0000
 1852,-0.00000238,0.00000857,-0.00000064,0.00004631,-0.00001616,0.00007
 075,0.00012455,-0.00001845,-0.00008932,0.00000694,-0.00001954,0.000033
 96,-0.00003847,-0.00002734,0.00103661,0.00108969,-0.00130304,-0.000883
 46,-0.00002623,0.00055913,-0.00002996,-0.00009205,0.00000404,-0.000269
 05,0.00052621,0.00016799,0.09990501,-0.13712692,-0.07121766,-0.0109066
 1,0.01140961,0.00874830,0.00619229,-0.00626697,-0.00395086,-0.11350589
 ,0.15145215,-0.01360197,0.01267270,0.00807650,-0.00122100,0.00359889,-
 0.00153994,-0.00040840,0.00066927,0.00178638,0.00041430,-0.00039213,-0
 .00004788,0.00022362,-0.00015778,0.00017480,-0.00004426,0.00011545,-0.
 00005337,0.00001908,-0.00002846,0.00004861,0.00000171,-0.00000187,-0.0
 0000473,0.00001080,-0.00002481,0.00002934,0.00004793,-0.00012683,-0.00
 001831,0.00005157,0.00002014,0.00011568,0.00001952,0.00002179,-0.00002
 304,-0.00083211,-0.00063062,0.00080511,0.00019984,-0.00041649,0.000034
 78,0.00015859,-0.00001198,-0.00007129,-0.00018546,-0.00020058,0.000039
 25,0.07984537,-0.07216061,-0.10411532,0.00273031,-0.00329579,-0.003491
 99,0.01987593,-0.01608529,-0.01271298,-0.08730538,0.07643499,0.1109684
 1\\0.00000001,-0.00000033,0.00000034,0.00000020,0.00000030,-0.00000012
 ,0.00000030,-0.00000019,-0.00000024,0.00000029,0.00000003,0.00000014,-
 0.00000014,0.00000017,0.00000017,-0.00000019,-0.00000009,-0.00000022,0
 .00000004,0.00000007,-0.00000021,-0.00000005,0.00000006,-0.00000026,0.
 00000001,0.00000012,-0.00000031,-0.00000063,0.00000025,-0.00000037,0.0
 0000003,0.00000018,-0.00000054,-0.00000027,0.00000022,0.00000022,-0.00
 000009,-0.00000003,0.00000029,0.00000004,-0.00000007,0.00000030,-0.000
 00001,-0.00000011,0.00000028,0.00000010,0.,0.00000025,0.00000011,-0.00
 000099,-0.00000009,0.00000021,0.00000039,0.00000012,-0.00000014,-0.000
 00008,0.00000015,0.00000016,0.00000010,0.00000011\\\@


 ONE OF THE BENEFITS OF A COLLEGE EDUCATION
 IS TO SHOW THE BOY ITS LITTLE AVAIL 
                                    EMERSON IN 'CULTURE'
 Job cpu time:       4 days 13 hours 15 minutes  4.3 seconds.
 Elapsed time:       0 days  2 hours 45 minutes 46.9 seconds.
 File lengths (MBytes):  RWF= 138775 Int=      0 D2E=      0 Chk=     25 Scr=      1
 Normal termination of Gaussian 16 at Mon Jun 24 22:13:58 2019.
