 Entering Gaussian System, Link 0=g16
 Initial command:
 /ichec/packages/gaussian/16b01/l1.exe "/localscratch/350165/Gau-22539.inp" -scrdir="/localscratch/350165/"
 Entering Link 1 = /ichec/packages/gaussian/16b01/l1.exe PID=     22679.
  
 Copyright (c) 1988-2017, Gaussian, Inc.  All Rights Reserved.
  
 This is part of the Gaussian(R) 16 program.  It is based on
 the Gaussian(R) 09 system (copyright 2009, Gaussian, Inc.),
 the Gaussian(R) 03 system (copyright 2003, Gaussian, Inc.),
 the Gaussian(R) 98 system (copyright 1998, Gaussian, Inc.),
 the Gaussian(R) 94 system (copyright 1995, Gaussian, Inc.),
 the Gaussian 92(TM) system (copyright 1992, Gaussian, Inc.),
 the Gaussian 90(TM) system (copyright 1990, Gaussian, Inc.),
 the Gaussian 88(TM) system (copyright 1988, Gaussian, Inc.),
 the Gaussian 86(TM) system (copyright 1986, Carnegie Mellon
 University), and the Gaussian 82(TM) system (copyright 1983,
 Carnegie Mellon University). Gaussian is a federally registered
 trademark of Gaussian, Inc.
  
 This software contains proprietary and confidential information,
 including trade secrets, belonging to Gaussian, Inc.
  
 This software is provided under written license and may be
 used, copied, transmitted, or stored only in accord with that
 written license.
  
 The following legend is applicable only to US Government
 contracts under FAR:
  
                    RESTRICTED RIGHTS LEGEND
  
 Use, reproduction and disclosure by the US Government is
 subject to restrictions as set forth in subparagraphs (a)
 and (c) of the Commercial Computer Software - Restricted
 Rights clause in FAR 52.227-19.
  
 Gaussian, Inc.
 340 Quinnipiac St., Bldg. 40, Wallingford CT 06492
  
  
 ---------------------------------------------------------------
 Warning -- This program may not be used in any manner that
 competes with the business of Gaussian, Inc. or will provide
 assistance to any competitor of Gaussian, Inc.  The licensee
 of this program is prohibited from giving any competitor of
 Gaussian, Inc. access to this program.  By using this program,
 the user acknowledges that Gaussian, Inc. is engaged in the
 business of creating and licensing software in the field of
 computational chemistry and represents and warrants to the
 licensee that it is not a competitor of Gaussian, Inc. and that
 it will not use this program in any manner prohibited above.
 ---------------------------------------------------------------
  

 Cite this work as:
 Gaussian 16, Revision B.01,
 M. J. Frisch, G. W. Trucks, H. B. Schlegel, G. E. Scuseria, 
 M. A. Robb, J. R. Cheeseman, G. Scalmani, V. Barone, 
 G. A. Petersson, H. Nakatsuji, X. Li, M. Caricato, A. V. Marenich, 
 J. Bloino, B. G. Janesko, R. Gomperts, B. Mennucci, H. P. Hratchian, 
 J. V. Ortiz, A. F. Izmaylov, J. L. Sonnenberg, D. Williams-Young, 
 F. Ding, F. Lipparini, F. Egidi, J. Goings, B. Peng, A. Petrone, 
 T. Henderson, D. Ranasinghe, V. G. Zakrzewski, J. Gao, N. Rega, 
 G. Zheng, W. Liang, M. Hada, M. Ehara, K. Toyota, R. Fukuda, 
 J. Hasegawa, M. Ishida, T. Nakajima, Y. Honda, O. Kitao, H. Nakai, 
 T. Vreven, K. Throssell, J. A. Montgomery, Jr., J. E. Peralta, 
 F. Ogliaro, M. J. Bearpark, J. J. Heyd, E. N. Brothers, K. N. Kudin, 
 V. N. Staroverov, T. A. Keith, R. Kobayashi, J. Normand, 
 K. Raghavachari, A. P. Rendell, J. C. Burant, S. S. Iyengar, 
 J. Tomasi, M. Cossi, J. M. Millam, M. Klene, C. Adamo, R. Cammi, 
 J. W. Ochterski, R. L. Martin, K. Morokuma, O. Farkas, 
 J. B. Foresman, and D. J. Fox, Gaussian, Inc., Wallingford CT, 2016.
 
 ******************************************
 Gaussian 16:  ES64L-G16RevB.01 20-Dec-2017
                17-Jun-2019 
 ******************************************
 %mem=80GB
 %nproc=40
 Will use up to   40 processors via shared memory.
 ----------------------------------------------------------------------
 # opt=(calcfc,ts,noeigentest,maxcyc=500,modredundant) uB2PLYPD3/cc-pvt
 z scf=maxcyc=500 nosymm
 ----------------------------------------------------------------------
 1/5=1,6=500,10=4,11=1,18=120,38=1/1,3;
 2/9=110,12=2,15=1,17=6,18=5,40=1/2;
 3/5=16,6=1,11=2,25=1,30=1,71=2,74=-60,116=2,140=1/1,2,3;
 4//1;
 5/5=2,7=500,38=5/2;
 8/6=3,8=1,10=1,19=11,30=-1/1;
 9/15=3,16=-3/6;
 11/6=1,8=1,15=11,17=12,24=-1,27=1,28=-2,29=300,31=1,32=6,42=3/1,2,10;
 10/6=2,21=1,31=1/2;
 8/6=4,8=1,10=1,19=11,30=-1/11,4;
 10/5=1,20=4,31=1/2;
 11/12=2,14=11,16=1,17=2,28=-2,31=1,42=3,76=2/2,10,12;
 6/7=2,8=2,9=2,10=2/1;
 7/10=1,12=2,25=1,30=1,44=2/1,2,3,16;
 1/5=1,6=500,10=4,11=1,18=20/3(2);
 2/9=110,15=1/2;
 99//99;
 2/9=110,15=1/2;
 3/5=16,6=1,11=2,25=1,30=1,71=1,74=-60,116=2/1,2,3;
 4/5=5,16=3,69=1/1;
 5/5=2,7=500,38=5/2;
 8/6=4,10=1/1;
 9/15=2,16=-3/6;
 10/5=1,31=1/2;
 7/12=2,30=1/1,2,3,16;
 1/5=1,6=500,11=1,18=20/3(-8);
 2/9=110,15=1/2;
 6/7=2,8=2,9=2,10=2/1;
 99/9=10/99;
 -------------------
 Title Card Required
 -------------------
 Symbolic Z-matrix:
 Charge =  0 Multiplicity = 2
 C                     1.33637  -1.19224   0.33156 
 H                     1.74388  -1.95034  -0.32898 
 H                     1.34056  -1.47319   1.37924 
 C                    -1.73361   0.88869   0.54387 
 H                    -0.95816   0.87559   1.30888 
 H                    -1.91287   1.90938   0.21434 
 H                    -2.65026   0.44477   0.92699 
 O                    -1.29789   0.19186  -0.62071 
 O                    -1.12099  -1.14788  -0.28398 
 H                     0.02118  -1.21923   0.00849 
 C                     1.71006   0.13699   0.04559 
 C                     1.95025   1.2936   -0.22295 
 H                     2.18832   2.29899  -0.45989 
 
 Add virtual bond connecting atoms H10        and O9         Dist= 2.23D+00.
 Add virtual bond connecting atoms H10        and C1         Dist= 2.56D+00.
 The following ModRedundant input section has been read:
 D    *          1       9    *    R                                           
 D       2       1       9       8 S  36 10.000                                
 

 GradGradGradGradGradGradGradGradGradGradGradGradGradGradGradGradGradGrad
 Berny optimization.
 Initialization pass.
                           ----------------------------
                           !    Initial Parameters    !
                           ! (Angstroms and Degrees)  !
 --------------------------                            --------------------------
 ! Name  Definition              Value          Derivative Info.                !
 --------------------------------------------------------------------------------
 ! R1    R(1,2)                  1.0849         calculate D2E/DX2 analytically  !
 ! R2    R(1,3)                  1.0847         calculate D2E/DX2 analytically  !
 ! R3    R(1,10)                 1.3546         calculate D2E/DX2 analytically  !
 ! R4    R(1,11)                 1.4101         calculate D2E/DX2 analytically  !
 ! R5    R(4,5)                  1.0894         calculate D2E/DX2 analytically  !
 ! R6    R(4,6)                  1.0874         calculate D2E/DX2 analytically  !
 ! R7    R(4,7)                  1.0882         calculate D2E/DX2 analytically  !
 ! R8    R(4,8)                  1.4254         calculate D2E/DX2 analytically  !
 ! R9    R(8,9)                  1.3927         calculate D2E/DX2 analytically  !
 ! R10   R(9,10)                 1.1812         calculate D2E/DX2 analytically  !
 ! R11   R(11,12)                1.2114         calculate D2E/DX2 analytically  !
 ! R12   R(12,13)                1.06           calculate D2E/DX2 analytically  !
 ! A1    A(2,1,3)              113.9295         calculate D2E/DX2 analytically  !
 ! A2    A(2,1,10)             101.8623         calculate D2E/DX2 analytically  !
 ! A3    A(2,1,11)             115.8283         calculate D2E/DX2 analytically  !
 ! A4    A(3,1,10)             103.2352         calculate D2E/DX2 analytically  !
 ! A5    A(3,1,11)             116.0419         calculate D2E/DX2 analytically  !
 ! A6    A(10,1,11)            103.163          calculate D2E/DX2 analytically  !
 ! A7    A(5,4,6)              109.9647         calculate D2E/DX2 analytically  !
 ! A8    A(5,4,7)              110.3338         calculate D2E/DX2 analytically  !
 ! A9    A(5,4,8)              110.5046         calculate D2E/DX2 analytically  !
 ! A10   A(6,4,7)              110.5326         calculate D2E/DX2 analytically  !
 ! A11   A(6,4,8)              105.1692         calculate D2E/DX2 analytically  !
 ! A12   A(7,4,8)              110.2258         calculate D2E/DX2 analytically  !
 ! A13   A(4,8,9)              108.1543         calculate D2E/DX2 analytically  !
 ! A14   A(8,9,10)             103.9341         calculate D2E/DX2 analytically  !
 ! A15   L(1,10,9,5,-1)        176.5925         calculate D2E/DX2 analytically  !
 ! A16   L(1,11,12,4,-1)       176.3002         calculate D2E/DX2 analytically  !
 ! A17   L(11,12,13,4,-1)      181.5498         calculate D2E/DX2 analytically  !
 ! A18   L(1,10,9,5,-2)        176.7442         calculate D2E/DX2 analytically  !
 ! A19   L(1,11,12,4,-2)       181.6108         calculate D2E/DX2 analytically  !
 ! A20   L(11,12,13,4,-2)      179.8898         calculate D2E/DX2 analytically  !
 ! D1    D(2,1,9,8)           -123.5467         Scan                            !
 ! D2    D(5,4,8,9)             64.6597         calculate D2E/DX2 analytically  !
 ! D3    D(6,4,8,9)           -176.7144         calculate D2E/DX2 analytically  !
 ! D4    D(7,4,8,9)            -57.5595         calculate D2E/DX2 analytically  !
 ! D5    D(4,8,9,10)           -92.9699         calculate D2E/DX2 analytically  !
 --------------------------------------------------------------------------------
 Trust Radius=3.00D-01 FncErr=1.00D-07 GrdErr=1.00D-07 EigMax=2.50D+02 EigMin=1.00D-04
 Number of optimizations in scan=  37
 Number of steps in this run=    100 maximum allowed number of steps=    100.
 Search for a saddle point of order  1.
 GradGradGradGradGradGradGradGradGradGradGradGradGradGradGradGradGradGrad

                          Input orientation:                          
 ---------------------------------------------------------------------
 Center     Atomic      Atomic             Coordinates (Angstroms)
 Number     Number       Type             X           Y           Z
 ---------------------------------------------------------------------
      1          6           0        1.336370   -1.192242    0.331563
      2          1           0        1.743879   -1.950340   -0.328975
      3          1           0        1.340555   -1.473192    1.379241
      4          6           0       -1.733607    0.888694    0.543874
      5          1           0       -0.958157    0.875588    1.308881
      6          1           0       -1.912867    1.909378    0.214342
      7          1           0       -2.650263    0.444770    0.926988
      8          8           0       -1.297892    0.191857   -0.620707
      9          8           0       -1.120993   -1.147877   -0.283981
     10          1           0        0.021177   -1.219230    0.008494
     11          6           0        1.710057    0.136988    0.045588
     12          6           0        1.950254    1.293595   -0.222953
     13          1           0        2.188315    2.298985   -0.459889
 ---------------------------------------------------------------------
                    Distance matrix (angstroms):
                    1          2          3          4          5
     1  C    0.000000
     2  H    1.084936   0.000000
     3  H    1.084703   1.818885   0.000000
     4  C    3.714853   4.573280   3.965705   0.000000
     5  H    3.239742   4.239038   3.287217   1.089371   0.000000
     6  H    4.493476   5.344568   4.835651   1.087438   1.782753
     7  H    4.350584   5.159698   4.450813   1.088165   1.787364
     8  O    3.124401   3.731821   3.705885   1.425370   2.075143
     9  O    2.533672   2.975477   2.988537   2.282162   2.580336
    10  H    1.354561   1.901607   1.919428   2.794502   2.652991
    11  C    1.410062   2.120938   2.123168   3.559800   3.043157
    12  C    2.619872   3.252222   3.254822   3.784548   3.313623
    13  H    3.679792   4.274509   4.281403   4.286949   3.880063
                    6          7          8          9         10
     6  H    0.000000
     7  H    1.787930   0.000000
     8  O    2.006335   2.070805   0.000000
     9  O    3.197217   2.518261   1.392683   0.000000
    10  H    3.683896   3.278585   2.031503   1.181180   0.000000
    11  C    4.036759   4.459146   3.081350   3.126394   2.166338
    12  C    3.936257   4.817429   3.452895   3.923910   3.176349
    13  H    4.174455   5.364082   4.076701   4.781560   4.158570
                   11         12         13
    11  C    0.000000
    12  C    1.211424   0.000000
    13  H    2.271226   1.060010   0.000000
 Symmetry turned off by external request.
 Stoichiometry    C4H7O2(2)
 Framework group  C1[X(C4H7O2)]
 Deg. of freedom    33
 Full point group                 C1      NOp   1
 Rotational constants (GHZ):           4.8909593           2.2493491           1.7264179
 Standard basis: CC-pVTZ (5D, 7F)
   278 basis functions,   431 primitive gaussians,   315 cartesian basis functions
    24 alpha electrons       23 beta electrons
       nuclear repulsion energy       221.2493001033 Hartrees.
 NAtoms=   13 NActive=   13 NUniq=   13 SFac= 1.00D+00 NAtFMM=   60 NAOKFM=F Big=F
 Integral buffers will be    131072 words long.
 Raffenetti 2 integral format.
 Two-electron integral symmetry is turned off.
 Nuclear repulsion after empirical dispersion term =      221.2429153218 Hartrees.
 One-electron integrals computed using PRISM.
 NBasis=   278 RedAO= T EigKep=  5.22D-05  NBF=   278
 NBsUse=   278 1.00D-06 EigRej= -1.00D+00 NBFU=   278
 ExpMin= 1.03D-01 ExpMax= 1.53D+04 ExpMxC= 5.22D+02 IAcc=3 IRadAn=         5 AccDes= 0.00D+00
 Harris functional with IExCor=  419 and IRadAn=       5 diagonalized for initial guess.
 HarFok:  IExCor=  419 AccDes= 0.00D+00 IRadAn=         5 IDoV= 1 UseB2=F ITyADJ=14
 ICtDFT=  3500011 ScaDFX=  1.000000  1.000000  1.000000  1.000000
 FoFCou: FMM=F IPFlag=           0 FMFlag=      100000 FMFlg1=           0
         NFxFlg=           0 DoJE=T BraDBF=F KetDBF=T FulRan=T
         wScrn=  0.000000 ICntrl=       500 IOpCl=  0 I1Cent=   200000004 NGrid=           0
         NMat0=    1 NMatS0=      1 NMatT0=    0 NMatD0=    1 NMtDS0=    0 NMtDT0=    0
 Symmetry not used in FoFCou.
 Initial guess <Sx>= 0.0000 <Sy>= 0.0000 <Sz>= 0.5000 <S**2>= 0.7500 S= 0.5000
 Requested convergence on RMS density matrix=1.00D-08 within 500 cycles.
 Requested convergence on MAX density matrix=1.00D-06.
 Requested convergence on             energy=1.00D-06.
 No special actions if energy rises.
 Integral accuracy reduced to 1.0D-05 until final iterations.
 Initial convergence to 1.0D-05 achieved.  Increase integral accuracy.
 SCF Done:  E(UB2PLYPD3) =  -306.340437129     A.U. after   21 cycles
            NFock= 21  Conv=0.85D-08     -V/T= 2.0044
 <Sx>= 0.0000 <Sy>= 0.0000 <Sz>= 0.5000 <S**2>= 0.7947 S= 0.5221
 <L.S>=  0.00000000000    
 Annihilation of the first spin contaminant:
 S**2 before annihilation     0.7947,   after     0.7513
 DoSCS=T DFT=T ScalE2(SS,OS)=  0.270000  0.270000
 ExpMin= 1.03D-01 ExpMax= 1.53D+04 ExpMxC= 5.22D+02 IAcc=3 IRadAn=         5 AccDes= 0.00D+00
 HarFok:  IExCor=  205 AccDes= 0.00D+00 IRadAn=         5 IDoV=-2 UseB2=F ITyADJ=14
 ICtDFT= 12500011 ScaDFX=  1.000000  1.000000  1.000000  1.000000
 Range of M.O.s used for correlation:     7   278
 NBasis=   278 NAE=    24 NBE=    23 NFC=     6 NFV=     0
 NROrb=    272 NOA=    18 NOB=    17 NVA=   254 NVB=   255

 **** Warning!!: The largest alpha MO coefficient is  0.46136708D+02


 **** Warning!!: The largest beta MO coefficient is  0.45800593D+02

 DoSCS=T DFT=T ScalE2(SS,OS)=  0.270000  0.270000
 Disk-based method using ON**2 memory for 18 occupieds at a time.
 Permanent disk used for amplitudes=    52814601 words.
 Estimated scratch disk usage=  1003979544 words.
 Actual    scratch disk usage=   970374936 words.
 JobTyp=2 Pass  1:  I=   7 to  24 NPSUse= 40 ParTrn=T ParDer=T DoDerP=T.
 (rs|ai) integrals will be sorted in core.
 Actual    scratch disk usage=   970374936 words.
 JobTyp=3 Pass  1:  I=   7 to  23 NPSUse= 40 ParTrn=T ParDer=T DoDerP=T.
 (rs|ai) integrals will be sorted in core.
 Spin components of T(2) and E(2):
     alpha-alpha T2 =       0.6903294860D-01 E2=     -0.4724912783D-01
     alpha-beta  T2 =       0.4087866478D+00 E2=     -0.2835266388D+00
     beta-beta   T2 =       0.7821105057D-01 E2=     -0.4688114915D-01
 (S**2,0)=  0.79467D+00           (S**2,1)=  0.74795D+00
 Scaling Projection term by:   0.270000
 E(PUHF)=      -0.30634935340D+03        E(PMP2)=      -0.30671926371D+03
 E2(B2PLYPD3) =    -0.3776569158D+00 E(B2PLYPD3) =    -0.30671809404516D+03
 G2DrvN: will do    14 centers at a time, making    1 passes.
 Calling FoFCou, ICntrl=  3107 FMM=F I1Cent=   0 AccDes= 0.00D+00.
 End of G2Drv F.D. properties file   721 does not exist.
 End of G2Drv F.D. properties file   722 does not exist.
 End of G2Drv F.D. properties file   788 does not exist.
          IDoAtm=1111111111111
          Differentiating once with respect to electric field.
                with respect to dipole field.
          Differentiating once with respect to nuclear coordinates.
 Keep R1 and R2 ints in memory in canonical form, NReq=1549739835.
          There are    42 degrees of freedom in the 1st order CPHF.  IDoFFX=6 NUNeed=    42.
     39 vectors produced by pass  0 Test12= 2.85D-14 2.38D-09 XBig12= 9.16D+01 7.18D+00.
 AX will form    39 AO Fock derivatives at one time.
     39 vectors produced by pass  1 Test12= 2.85D-14 2.38D-09 XBig12= 1.40D+01 5.18D-01.
     39 vectors produced by pass  2 Test12= 2.85D-14 2.38D-09 XBig12= 7.60D-01 1.39D-01.
     39 vectors produced by pass  3 Test12= 2.85D-14 2.38D-09 XBig12= 1.40D-02 1.89D-02.
     39 vectors produced by pass  4 Test12= 2.85D-14 2.38D-09 XBig12= 1.81D-04 1.39D-03.
     39 vectors produced by pass  5 Test12= 2.85D-14 2.38D-09 XBig12= 2.01D-06 1.52D-04.
     39 vectors produced by pass  6 Test12= 2.85D-14 2.38D-09 XBig12= 1.68D-08 1.36D-05.
     20 vectors produced by pass  7 Test12= 2.85D-14 2.38D-09 XBig12= 1.10D-10 1.28D-06.
      4 vectors produced by pass  8 Test12= 2.85D-14 2.38D-09 XBig12= 8.00D-13 9.53D-08.
      2 vectors produced by pass  9 Test12= 2.85D-14 2.38D-09 XBig12= 7.10D-15 9.29D-09.
 InvSVY:  IOpt=1 It=  1 EMax= 2.18D-15
 Solved reduced A of dimension   299 with    42 vectors.
 End of Minotr F.D. properties file   721 does not exist.
 End of Minotr F.D. properties file   722 does not exist.
 End of Minotr F.D. properties file   788 does not exist.
 MDV= 10737418240.
 DoSCS=T DFT=T ScalE2(SS,OS)=  0.270000  0.270000
 Form MO integral derivatives with frozen-active canonical formalism.
 Discarding MO integrals.
 Reordered first order wavefunction length =    212909022
 In DefCFB: NBatch=  1 ICI= 24 ICA=255 LFMax= 85
            Large arrays: LIAPS=  4189699080 LIARS=   944622000 words.
 In DefCFB: NBatch=  1 ICI= 24 ICA=255 LFMax= 85
            Large arrays: LIAPS=  4189699080 LIARS=   944622000 words.
 Semi-Direct transformation.
 ModeAB=           4 MOrb=            24 LenV=   10735064879
 LASXX=    243620670 LTotXX=   243620670 LenRXX=   491663946
 LTotAB=   248043276 MaxLAS=   318247728 LenRXY=           0
 NonZer=   735284616 LenScr=  1107252224 LnRSAI=   318247728
 LnScr1=   479244288 LExtra=           0 Total=   2396408186
 MaxDsk=          -1 SrtSym=           T ITran=            4
 JobTyp=1 Pass  1:  I=   1 to  24.
 (rs|ai) integrals will be sorted in core.
 ModeAB=           4 MOrb=            23 LenV=   10735064879
 LASXX=    234045631 LTotXX=   234045631 LenRXX=   432921916
 LTotAB=   198876285 MaxLAS=   304987406 LenRXY=           0
 NonZer=   666967547 LenScr=  1004375040 LnRSAI=   304987406
 LnScr1=   459275264 LExtra=           0 Total=   2201559626
 MaxDsk=          -1 SrtSym=           T ITran=            4
 JobTyp=2 Pass  1:  I=   1 to  23.
 (rs|ai) integrals will be sorted in core.
 DoSCS=T DFT=T ScalE2(SS,OS)=  0.270000  0.270000
 Spin components of T(2) and E(2):
     alpha-alpha T2 =       0.6903294860D-01 E2=     -0.4724912783D-01
     alpha-beta  T2 =       0.4087866478D+00 E2=     -0.2835266388D+00
     beta-beta   T2 =       0.7821105057D-01 E2=     -0.4688114915D-01
 E2(B2PLYPD3) =    -0.3776569158D+00 E(B2PLYPD3) =    -0.30671809404516D+03
 (S**2,0)=  0.79467D+00           (S**2,1)=  0.74795D+00
 Scaling Projection term by:   0.270000
 E(PUHF)=      -0.30634935340D+03        E(PMP2)=      -0.30671926371D+03
          IDoAtm=1111111111111
          Differentiating once with respect to electric field.
                with respect to dipole field.
          Differentiating once with respect to nuclear coordinates.
 Keep R1 and R2 ints in memory in canonical form, NReq=1549876386.
          There are     1 degrees of freedom in the 1st order CPHF.  IDoFFX=0 NUNeed=     1.
 LinEq1:  Iter=  0 NonCon=     1 RMS=1.17D-03 Max=6.13D-02 NDo=     1
 AX will form     1 AO Fock derivatives at one time.
 LinEq1:  Iter=  1 NonCon=     1 RMS=4.30D-04 Max=9.46D-03 NDo=     1
 LinEq1:  Iter=  2 NonCon=     1 RMS=2.90D-04 Max=8.04D-03 NDo=     1
 LinEq1:  Iter=  3 NonCon=     1 RMS=1.89D-04 Max=7.95D-03 NDo=     1
 LinEq1:  Iter=  4 NonCon=     1 RMS=1.06D-04 Max=4.71D-03 NDo=     1
 LinEq1:  Iter=  5 NonCon=     1 RMS=8.01D-05 Max=2.80D-03 NDo=     1
 LinEq1:  Iter=  6 NonCon=     1 RMS=3.48D-05 Max=9.97D-04 NDo=     1
 LinEq1:  Iter=  7 NonCon=     1 RMS=8.86D-06 Max=2.70D-04 NDo=     1
 LinEq1:  Iter=  8 NonCon=     1 RMS=4.26D-06 Max=9.53D-05 NDo=     1
 LinEq1:  Iter=  9 NonCon=     1 RMS=2.93D-06 Max=1.02D-04 NDo=     1
 LinEq1:  Iter= 10 NonCon=     1 RMS=1.97D-06 Max=6.96D-05 NDo=     1
 LinEq1:  Iter= 11 NonCon=     1 RMS=1.01D-06 Max=1.93D-05 NDo=     1
 LinEq1:  Iter= 12 NonCon=     1 RMS=3.51D-07 Max=7.90D-06 NDo=     1
 LinEq1:  Iter= 13 NonCon=     1 RMS=1.15D-07 Max=1.86D-06 NDo=     1
 LinEq1:  Iter= 14 NonCon=     1 RMS=4.49D-08 Max=8.32D-07 NDo=     1
 LinEq1:  Iter= 15 NonCon=     1 RMS=1.93D-08 Max=5.56D-07 NDo=     1
 LinEq1:  Iter= 16 NonCon=     1 RMS=8.09D-09 Max=2.87D-07 NDo=     1
 LinEq1:  Iter= 17 NonCon=     1 RMS=3.07D-09 Max=1.03D-07 NDo=     1
 LinEq1:  Iter= 18 NonCon=     1 RMS=9.32D-10 Max=3.48D-08 NDo=     1
 LinEq1:  Iter= 19 NonCon=     1 RMS=2.90D-10 Max=9.68D-09 NDo=     1
 LinEq1:  Iter= 20 NonCon=     1 RMS=7.96D-11 Max=2.57D-09 NDo=     1
 LinEq1:  Iter= 21 NonCon=     0 RMS=2.41D-11 Max=6.91D-10 NDo=     1
 Linear equations converged to 1.000D-10 1.000D-09 after    21 iterations.
 End of Minotr F.D. properties file   721 does not exist.
 End of Minotr F.D. properties file   722 does not exist.
 End of Minotr F.D. properties file   788 does not exist.
 Symmetrizing basis deriv contribution to polar:
 IMax=3 JMax=2 DiffMx= 0.00D+00
 G2DrvN: will do    14 centers at a time, making    1 passes.
 Calling FoFCou, ICntrl=  3107 FMM=F I1Cent=   0 AccDes= 0.00D+00.
 End of G2Drv F.D. properties file   721 does not exist.
 End of G2Drv F.D. properties file   722 does not exist.
 End of G2Drv F.D. properties file   788 does not exist.
 DoSCS=T DFT=T ScalE2(SS,OS)=  0.270000  0.270000
 R2 and R3 integrals will be kept in memory, NReq=  2492879760.
 DD1Dir will call FoFMem   1 times, MxPair=      1634
 NAB=   552 NAA=   276 NBB=   253.
 Discarding MO integrals.

 **********************************************************************

            Population analysis using the SCF Density.

 **********************************************************************

 Alpha  occ. eigenvalues --  -19.79328 -19.78936 -10.66052 -10.65879 -10.63645
 Alpha  occ. eigenvalues --  -10.63110  -1.28487  -1.02023  -0.91937  -0.83154
 Alpha  occ. eigenvalues --   -0.77724  -0.63263  -0.61441  -0.56431  -0.55142
 Alpha  occ. eigenvalues --   -0.54917  -0.52809  -0.50375  -0.44549  -0.41500
 Alpha  occ. eigenvalues --   -0.36819  -0.35977  -0.33860  -0.29242
 Alpha virt. eigenvalues --    0.07911   0.08410   0.09554   0.10467   0.11459
 Alpha virt. eigenvalues --    0.13721   0.14833   0.15507   0.17005   0.20214
 Alpha virt. eigenvalues --    0.22893   0.25741   0.27887   0.29852   0.30949
 Alpha virt. eigenvalues --    0.32971   0.34631   0.36417   0.39582   0.42933
 Alpha virt. eigenvalues --    0.43863   0.45384   0.46166   0.47915   0.50586
 Alpha virt. eigenvalues --    0.51500   0.51905   0.52979   0.53245   0.54084
 Alpha virt. eigenvalues --    0.57292   0.59160   0.60248   0.61406   0.64654
 Alpha virt. eigenvalues --    0.66470   0.67163   0.68509   0.71559   0.73359
 Alpha virt. eigenvalues --    0.76636   0.79122   0.83782   0.85537   0.87647
 Alpha virt. eigenvalues --    0.90259   0.92030   0.93701   0.94597   0.95522
 Alpha virt. eigenvalues --    0.96853   0.98358   0.99108   0.99974   1.04440
 Alpha virt. eigenvalues --    1.06887   1.09385   1.11493   1.11696   1.13954
 Alpha virt. eigenvalues --    1.16419   1.18411   1.19135   1.19937   1.25894
 Alpha virt. eigenvalues --    1.28209   1.31125   1.32154   1.33772   1.36548
 Alpha virt. eigenvalues --    1.38311   1.39489   1.40322   1.41649   1.46774
 Alpha virt. eigenvalues --    1.47486   1.51624   1.51877   1.55291   1.60434
 Alpha virt. eigenvalues --    1.63886   1.65585   1.68884   1.71686   1.78726
 Alpha virt. eigenvalues --    1.86218   1.91566   1.99920   2.03572   2.11022
 Alpha virt. eigenvalues --    2.12801   2.18066   2.21493   2.22481   2.25910
 Alpha virt. eigenvalues --    2.28091   2.33780   2.36140   2.36810   2.40711
 Alpha virt. eigenvalues --    2.44254   2.49742   2.53381   2.54140   2.55774
 Alpha virt. eigenvalues --    2.56884   2.62876   2.63346   2.68315   2.68611
 Alpha virt. eigenvalues --    2.70212   2.73475   2.79818   2.81555   2.84187
 Alpha virt. eigenvalues --    2.87576   2.88617   2.89994   2.90809   2.91697
 Alpha virt. eigenvalues --    2.92529   2.93722   2.96615   2.99262   3.02451
 Alpha virt. eigenvalues --    3.03320   3.04815   3.06342   3.06942   3.07884
 Alpha virt. eigenvalues --    3.08285   3.09482   3.11204   3.12995   3.13745
 Alpha virt. eigenvalues --    3.15910   3.18773   3.19597   3.20108   3.22256
 Alpha virt. eigenvalues --    3.27501   3.29976   3.30649   3.35868   3.39926
 Alpha virt. eigenvalues --    3.40683   3.42727   3.43321   3.44407   3.45160
 Alpha virt. eigenvalues --    3.49704   3.51252   3.52303   3.53991   3.58038
 Alpha virt. eigenvalues --    3.60821   3.63082   3.65528   3.68916   3.74489
 Alpha virt. eigenvalues --    3.75982   3.79649   3.82739   3.88081   3.89707
 Alpha virt. eigenvalues --    3.91094   3.93466   3.93684   3.94940   3.95586
 Alpha virt. eigenvalues --    3.97720   3.99601   4.03169   4.07881   4.09316
 Alpha virt. eigenvalues --    4.10261   4.13592   4.13885   4.17424   4.17820
 Alpha virt. eigenvalues --    4.19208   4.21355   4.27291   4.31685   4.34765
 Alpha virt. eigenvalues --    4.36340   4.38478   4.40659   4.42426   4.45933
 Alpha virt. eigenvalues --    4.49081   4.52794   4.64298   4.66385   4.70026
 Alpha virt. eigenvalues --    4.76242   4.81527   4.83768   4.92341   4.94500
 Alpha virt. eigenvalues --    4.99605   5.00896   5.03021   5.06490   5.06711
 Alpha virt. eigenvalues --    5.15180   5.18792   5.23585   5.26795   5.28568
 Alpha virt. eigenvalues --    5.31010   5.31372   5.35105   5.36642   5.39133
 Alpha virt. eigenvalues --    5.40713   5.46765   5.48305   5.67518   5.69204
 Alpha virt. eigenvalues --    5.71791   5.78087   5.81277   5.88910   5.91876
 Alpha virt. eigenvalues --    5.94301   5.97504   6.02768   6.03391   6.07725
 Alpha virt. eigenvalues --    6.10981   6.24241   6.27914   6.31987   6.39665
 Alpha virt. eigenvalues --    6.40488   6.65494   6.73383   6.75166   6.81618
 Alpha virt. eigenvalues --    6.96105   7.05367   7.06330   7.14727   7.43398
 Alpha virt. eigenvalues --    7.43675   7.58866   7.72755   8.45226   9.84479
 Alpha virt. eigenvalues --   10.70255  13.42992  13.75174  16.77290
  Beta  occ. eigenvalues --  -19.79027 -19.77361 -10.66067 -10.64822 -10.64058
  Beta  occ. eigenvalues --  -10.62478  -1.26457  -0.99115  -0.90802  -0.80641
  Beta  occ. eigenvalues --   -0.77183  -0.62428  -0.58245  -0.55175  -0.54679
  Beta  occ. eigenvalues --   -0.54298  -0.52315  -0.47551  -0.43678  -0.37016
  Beta  occ. eigenvalues --   -0.35591  -0.33539  -0.31759
  Beta virt. eigenvalues --   -0.07077   0.08116   0.08508   0.10012   0.10669
  Beta virt. eigenvalues --    0.12601   0.14385   0.15059   0.15564   0.17146
  Beta virt. eigenvalues --    0.21039   0.23158   0.25989   0.28831   0.30688
  Beta virt. eigenvalues --    0.31082   0.34008   0.35400   0.36925   0.40237
  Beta virt. eigenvalues --    0.43287   0.44337   0.45535   0.47189   0.48116
  Beta virt. eigenvalues --    0.51072   0.51530   0.52398   0.53249   0.53809
  Beta virt. eigenvalues --    0.55399   0.57716   0.59629   0.60646   0.61641
  Beta virt. eigenvalues --    0.64964   0.67094   0.67637   0.68929   0.72217
  Beta virt. eigenvalues --    0.73778   0.77028   0.79543   0.84744   0.86318
  Beta virt. eigenvalues --    0.87809   0.90563   0.92125   0.93903   0.94764
  Beta virt. eigenvalues --    0.95882   0.97188   0.98910   0.99537   1.00380
  Beta virt. eigenvalues --    1.04671   1.07205   1.09816   1.11735   1.12392
  Beta virt. eigenvalues --    1.14014   1.16547   1.18621   1.19335   1.20620
  Beta virt. eigenvalues --    1.26082   1.28564   1.31675   1.32606   1.34380
  Beta virt. eigenvalues --    1.36939   1.38633   1.39548   1.40485   1.41854
  Beta virt. eigenvalues --    1.47301   1.47896   1.52206   1.52459   1.55965
  Beta virt. eigenvalues --    1.60693   1.64023   1.66422   1.69516   1.72736
  Beta virt. eigenvalues --    1.79003   1.88294   1.92534   2.00503   2.04455
  Beta virt. eigenvalues --    2.11384   2.13183   2.19535   2.21774   2.23687
  Beta virt. eigenvalues --    2.26362   2.29161   2.34057   2.36315   2.37107
  Beta virt. eigenvalues --    2.41311   2.44740   2.49876   2.53973   2.54328
  Beta virt. eigenvalues --    2.56354   2.57507   2.63172   2.63786   2.68800
  Beta virt. eigenvalues --    2.68947   2.71155   2.73935   2.80109   2.82251
  Beta virt. eigenvalues --    2.84421   2.88408   2.89401   2.90535   2.91294
  Beta virt. eigenvalues --    2.92224   2.92803   2.94179   2.97127   2.99952
  Beta virt. eigenvalues --    3.02839   3.03553   3.05277   3.07351   3.07821
  Beta virt. eigenvalues --    3.07986   3.09321   3.09808   3.11960   3.13069
  Beta virt. eigenvalues --    3.13958   3.16101   3.18949   3.19880   3.20495
  Beta virt. eigenvalues --    3.22331   3.28361   3.30062   3.31027   3.37204
  Beta virt. eigenvalues --    3.40597   3.41252   3.42835   3.43853   3.44511
  Beta virt. eigenvalues --    3.45785   3.49899   3.51662   3.52438   3.54083
  Beta virt. eigenvalues --    3.58255   3.61109   3.63571   3.66158   3.69191
  Beta virt. eigenvalues --    3.74825   3.76400   3.79838   3.83014   3.88051
  Beta virt. eigenvalues --    3.89826   3.91228   3.93447   3.93815   3.95107
  Beta virt. eigenvalues --    3.95752   3.97348   3.99993   4.03038   4.07833
  Beta virt. eigenvalues --    4.09539   4.10398   4.13467   4.13955   4.17567
  Beta virt. eigenvalues --    4.17945   4.19288   4.21346   4.27354   4.31953
  Beta virt. eigenvalues --    4.34928   4.36452   4.38816   4.41665   4.42877
  Beta virt. eigenvalues --    4.46433   4.49327   4.53725   4.65348   4.66946
  Beta virt. eigenvalues --    4.70431   4.76854   4.81730   4.83957   4.92891
  Beta virt. eigenvalues --    4.94890   4.99847   5.01205   5.03809   5.06843
  Beta virt. eigenvalues --    5.06957   5.16054   5.19230   5.24510   5.27175
  Beta virt. eigenvalues --    5.29119   5.31490   5.31829   5.35392   5.36919
  Beta virt. eigenvalues --    5.39829   5.40815   5.47120   5.48704   5.68224
  Beta virt. eigenvalues --    5.69599   5.72983   5.78462   5.82180   5.89263
  Beta virt. eigenvalues --    5.92181   5.94473   5.97953   6.03482   6.04741
  Beta virt. eigenvalues --    6.08384   6.11123   6.25163   6.29509   6.32320
  Beta virt. eigenvalues --    6.40312   6.41737   6.66424   6.76400   6.77162
  Beta virt. eigenvalues --    6.82930   6.98028   7.06677   7.07974   7.16851
  Beta virt. eigenvalues --    7.43630   7.45717   7.60502   7.73520   8.45383
  Beta virt. eigenvalues --    9.85525  10.71231  13.42993  13.76014  16.77519
          Condensed to atoms (all electrons):
               1          2          3          4          5          6
     1  C    5.040438   0.416875   0.413315  -0.003274   0.000246   0.000457
     2  H    0.416875   0.525845  -0.029106  -0.000010   0.000046   0.000016
     3  H    0.413315  -0.029106   0.543771   0.000490  -0.001062  -0.000036
     4  C   -0.003274  -0.000010   0.000490   4.612975   0.395224   0.395909
     5  H    0.000246   0.000046  -0.001062   0.395224   0.664306  -0.034290
     6  H    0.000457   0.000016  -0.000036   0.395909  -0.034290   0.588565
     7  H   -0.000798   0.000010   0.000047   0.414196  -0.054447  -0.027225
     8  O    0.000827   0.000370   0.000343   0.293357  -0.047998  -0.025710
     9  O   -0.067078  -0.000503  -0.000846  -0.043751  -0.001828   0.006664
    10  H    0.196916  -0.007283  -0.005914   0.001974   0.004188  -0.000899
    11  C    0.405656  -0.042727  -0.049976   0.000316  -0.000199   0.000269
    12  C   -0.087328  -0.004251  -0.004304  -0.003127  -0.001209   0.000272
    13  H    0.000687  -0.000088  -0.000079  -0.000107   0.000035   0.000020
               7          8          9         10         11         12
     1  C   -0.000798   0.000827  -0.067078   0.196916   0.405656  -0.087328
     2  H    0.000010   0.000370  -0.000503  -0.007283  -0.042727  -0.004251
     3  H    0.000047   0.000343  -0.000846  -0.005914  -0.049976  -0.004304
     4  C    0.414196   0.293357  -0.043751   0.001974   0.000316  -0.003127
     5  H   -0.054447  -0.047998  -0.001828   0.004188  -0.000199  -0.001209
     6  H   -0.027225  -0.025710   0.006664  -0.000899   0.000269   0.000272
     7  H    0.601118  -0.036512   0.004184   0.000563   0.000615   0.000352
     8  O   -0.036512   7.929732   0.076019  -0.026340   0.001121   0.005106
     9  O    0.004184   0.076019   8.060265   0.197650  -0.010691   0.000493
    10  H    0.000563  -0.026340   0.197650   0.418833   0.001148   0.001274
    11  C    0.000615   0.001121  -0.010691   0.001148   4.970722   0.786278
    12  C    0.000352   0.005106   0.000493   0.001274   0.786278   5.052651
    13  H   -0.000001   0.000015   0.000024   0.000024  -0.058813   0.413798
              13
     1  C    0.000687
     2  H   -0.000088
     3  H   -0.000079
     4  C   -0.000107
     5  H    0.000035
     6  H    0.000020
     7  H   -0.000001
     8  O    0.000015
     9  O    0.000024
    10  H    0.000024
    11  C   -0.058813
    12  C    0.413798
    13  H    0.471634
          Atomic-Atomic Spin Densities.
               1          2          3          4          5          6
     1  C    0.567706   0.004977   0.005032   0.000981  -0.004095   0.000038
     2  H    0.004977  -0.024933   0.003095  -0.000033   0.000120  -0.000003
     3  H    0.005032   0.003095  -0.026363  -0.000157   0.000682  -0.000001
     4  C    0.000981  -0.000033  -0.000157  -0.008566   0.003303   0.000764
     5  H   -0.004095   0.000120   0.000682   0.003303   0.002761  -0.000604
     6  H    0.000038  -0.000003  -0.000001   0.000764  -0.000604  -0.001578
     7  H    0.000866  -0.000021  -0.000087  -0.001104  -0.000754   0.000553
     8  O    0.011078  -0.000371  -0.000477   0.000165  -0.001694   0.000287
     9  O   -0.066095   0.002198   0.002619  -0.002032   0.003853  -0.000184
    10  H    0.037385   0.001919   0.002279   0.001441  -0.003357   0.000099
    11  C   -0.017302  -0.000808  -0.000553  -0.001400   0.002324  -0.000122
    12  C   -0.016111  -0.001191  -0.001217  -0.000641   0.001017  -0.000044
    13  H   -0.000183  -0.000000   0.000001   0.000031  -0.000053   0.000003
               7          8          9         10         11         12
     1  C    0.000866   0.011078  -0.066095   0.037385  -0.017302  -0.016111
     2  H   -0.000021  -0.000371   0.002198   0.001919  -0.000808  -0.001191
     3  H   -0.000087  -0.000477   0.002619   0.002279  -0.000553  -0.001217
     4  C   -0.001104   0.000165  -0.002032   0.001441  -0.001400  -0.000641
     5  H   -0.000754  -0.001694   0.003853  -0.003357   0.002324   0.001017
     6  H    0.000553   0.000287  -0.000184   0.000099  -0.000122  -0.000044
     7  H    0.001867  -0.000244  -0.000051   0.001220  -0.000301  -0.000123
     8  O   -0.000244   0.097705  -0.050273   0.009019  -0.003683  -0.002821
     9  O   -0.000051  -0.050273   0.550964  -0.034557   0.005459   0.000486
    10  H    0.001220   0.009019  -0.034557  -0.106279   0.006294  -0.000331
    11  C   -0.000301  -0.003683   0.005459   0.006294  -0.227197   0.004341
    12  C   -0.000123  -0.002821   0.000486  -0.000331   0.004341   0.381633
    13  H    0.000004   0.000053  -0.000025  -0.000022  -0.001264   0.003539
              13
     1  C   -0.000183
     2  H   -0.000000
     3  H    0.000001
     4  C    0.000031
     5  H   -0.000053
     6  H    0.000003
     7  H    0.000004
     8  O    0.000053
     9  O   -0.000025
    10  H   -0.000022
    11  C   -0.001264
    12  C    0.003539
    13  H   -0.013994
 Mulliken charges and spin densities:
               1          2
     1  C   -0.316938   0.524278
     2  H    0.140808  -0.015050
     3  H    0.133358  -0.015148
     4  C   -0.064171  -0.007248
     5  H    0.076991   0.003504
     6  H    0.095988  -0.000793
     7  H    0.097898   0.001824
     8  O   -0.170329   0.058745
     9  O   -0.220600   0.412361
    10  H    0.217866  -0.084889
    11  C   -0.003718  -0.234211
    12  C   -0.160004   0.368538
    13  H    0.172851  -0.011910
 Sum of Mulliken charges =  -0.00000   1.00000
 Mulliken charges and spin densities with hydrogens summed into heavy atoms:
               1          2
     1  C   -0.042773   0.494079
     4  C    0.206707  -0.002713
     8  O   -0.170329   0.058745
     9  O   -0.002734   0.327472
    11  C   -0.003718  -0.234211
    12  C    0.012847   0.356628
 APT charges:
               1
     1  C    0.450624
     2  H   -0.010755
     3  H   -0.024782
     4  C    0.426274
     5  H   -0.030524
     6  H   -0.002074
     7  H   -0.031998
     8  O   -0.337678
     9  O    0.115064
    10  H   -0.379240
    11  C   -0.180342
    12  C   -0.210625
    13  H    0.216055
 Sum of APT charges =  -0.00000
 APT charges with hydrogens summed into heavy atoms:
               1
     1  C    0.415088
     4  C    0.361678
     8  O   -0.337678
     9  O   -0.264176
    11  C   -0.180342
    12  C    0.005430
 Electronic spatial extent (au):  <R**2>=            709.5734
 Charge=             -0.0000 electrons
 Dipole moment (field-independent basis, Debye):
    X=              1.0288    Y=              1.0697    Z=              1.6529  Tot=              2.2215
 Quadrupole moment (field-independent basis, Debye-Ang):
   XX=            -36.4987   YY=            -31.0250   ZZ=            -37.6854
   XY=             -2.8725   XZ=             -2.6206   YZ=             -1.2462
 Traceless Quadrupole moment (field-independent basis, Debye-Ang):
   XX=             -1.4290   YY=              4.0447   ZZ=             -2.6157
   XY=             -2.8725   XZ=             -2.6206   YZ=             -1.2462
 Octapole moment (field-independent basis, Debye-Ang**2):
  XXX=            -22.2555  YYY=              6.3171  ZZZ=             -0.1242  XYY=              7.7008
  XXY=              5.8130  XXZ=              0.7662  XZZ=             -3.9728  YZZ=             -3.1155
  YYZ=             -3.2439  XYZ=             -2.8209
 Hexadecapole moment (field-independent basis, Debye-Ang**3):
 XXXX=           -597.8724 YYYY=           -236.4944 ZZZZ=            -86.3991 XXXY=              1.7172
 XXXZ=             -7.6148 YYYX=             11.7728 YYYZ=             -7.6805 ZZZX=              5.1911
 ZZZY=             -1.2979 XXYY=           -117.9092 XXZZ=           -115.7013 YYZZ=            -59.1465
 XXYZ=             -3.9755 YYXZ=             -6.3289 ZZXY=             -3.1475
 N-N= 2.212429153218D+02 E-N=-1.160230447553D+03  KE= 3.050133860714D+02
  Exact polarizability:  95.752   2.928  74.207   1.039  -4.324  43.156
 Approx polarizability:  79.747   8.627  92.840   2.928  -7.628  51.909
                          Isotropic Fermi Contact Couplings
        Atom                 a.u.       MegaHertz       Gauss      10(-4) cm-1
     1  C(13)              0.08002      89.95290      32.09743      30.00506
     2  H(1)              -0.00334     -14.94247      -5.33185      -4.98427
     3  H(1)              -0.00348     -15.57694      -5.55824      -5.19591
     4  C(13)             -0.00502      -5.64759      -2.01520      -1.88383
     5  H(1)               0.00270      12.04998       4.29973       4.01944
     6  H(1)              -0.00008      -0.34593      -0.12344      -0.11539
     7  H(1)               0.00098       4.36561       1.55776       1.45621
     8  O(17)              0.02262     -13.70950      -4.89189      -4.57300
     9  O(17)              0.01806     -10.95088      -3.90755      -3.65282
    10  H(1)              -0.02411    -107.77955     -38.45842     -35.95139
    11  C(13)             -0.01669     -18.76095      -6.69438      -6.25798
    12  C(13)              0.00135       1.52016       0.54243       0.50707
    13  H(1)              -0.00338     -15.09604      -5.38664      -5.03550
 --------------------------------------------------------
       Center         ----  Spin Dipole Couplings  ----
                      3XX-RR        3YY-RR        3ZZ-RR
 --------------------------------------------------------
     1   Atom        0.509419     -0.278067     -0.231352
     2   Atom        0.004690     -0.000084     -0.004606
     3   Atom       -0.000839     -0.029425      0.030264
     4   Atom       -0.002952      0.002954     -0.000002
     5   Atom       -0.002782      0.001182      0.001600
     6   Atom       -0.001071      0.004506     -0.003435
     7   Atom        0.001147     -0.000858     -0.000289
     8   Atom        0.577252     -0.334132     -0.243121
     9   Atom        1.529530     -0.799465     -0.730065
    10   Atom        0.181203     -0.096989     -0.084214
    11   Atom       -0.037023      0.038687     -0.001664
    12   Atom        0.227193     -0.117405     -0.109788
    13   Atom        0.000889      0.014549     -0.015438
 --------------------------------------------------------
                        XY            XZ            YZ
 --------------------------------------------------------
     1   Atom       -0.006692      0.184544     -0.000530
     2   Atom       -0.015040     -0.004634      0.030449
     3   Atom        0.000346      0.002960     -0.017206
     4   Atom       -0.005448     -0.002883      0.005825
     5   Atom       -0.001027     -0.001325      0.006443
     6   Atom       -0.003454     -0.001124      0.003073
     7   Atom       -0.004557     -0.005165      0.003616
     8   Atom        0.060364      0.252026      0.042644
     9   Atom        0.426655      0.566971      0.099828
    10   Atom       -0.017694      0.072597     -0.005494
    11   Atom        0.028255     -0.016898     -0.003008
    12   Atom       -0.059596      0.110527     -0.022717
    13   Atom        0.006030      0.003021     -0.008322
 --------------------------------------------------------


 ---------------------------------------------------------------------------------
              Anisotropic Spin Dipole Couplings in Principal Axis System
 ---------------------------------------------------------------------------------

       Atom             a.u.   MegaHertz   Gauss  10(-4) cm-1        Axes

              Baa    -0.2784   -37.359   -13.331   -12.462  0.0694  0.9628 -0.2613
     1 C(13)  Bbb    -0.2745   -36.835   -13.144   -12.287 -0.2184  0.2702  0.9377
              Bcc     0.5529    74.194    26.474    24.748  0.9734 -0.0080  0.2291
 
              Baa    -0.0342   -18.241    -6.509    -6.085  0.1882  0.6990 -0.6900
     2 H(1)   Bbb    -0.0008    -0.420    -0.150    -0.140  0.8823  0.1884  0.4314
              Bcc     0.0350    18.662     6.659     6.225 -0.4315  0.6899  0.5812
 
              Baa    -0.0341   -18.176    -6.486    -6.063 -0.0332  0.9651  0.2597
     3 H(1)   Bbb    -0.0010    -0.542    -0.193    -0.181  0.9965  0.0519 -0.0657
              Bcc     0.0351    18.718     6.679     6.244  0.0769 -0.2566  0.9635
 
              Baa    -0.0063    -0.843    -0.301    -0.281  0.7985  0.5777 -0.1694
     4 C(13)  Bbb    -0.0040    -0.537    -0.192    -0.179  0.4327 -0.3551  0.8287
              Bcc     0.0103     1.380     0.492     0.460 -0.4186  0.7350  0.5335
 
              Baa    -0.0051    -2.706    -0.965    -0.903 -0.0882  0.7077 -0.7010
     5 H(1)   Bbb    -0.0030    -1.612    -0.575    -0.538  0.9845  0.1690  0.0467
              Bcc     0.0081     4.318     1.541     1.440 -0.1515  0.6860  0.7116
 
              Baa    -0.0045    -2.394    -0.854    -0.798 -0.0253 -0.3319  0.9430
     6 H(1)   Bbb    -0.0027    -1.426    -0.509    -0.476  0.9145  0.3732  0.1559
              Bcc     0.0072     3.820     1.363     1.274 -0.4037  0.8663  0.2941
 
              Baa    -0.0049    -2.600    -0.928    -0.867  0.7431  0.3090  0.5936
     7 H(1)   Bbb    -0.0042    -2.230    -0.796    -0.744  0.1276  0.8053 -0.5789
              Bcc     0.0091     4.830     1.723     1.611  0.6569 -0.5060 -0.5590
 
              Baa    -0.3542    25.629     9.145     8.549  0.0860  0.8492 -0.5211
     8 O(17)  Bbb    -0.2992    21.651     7.726     7.222 -0.2686  0.5234  0.8086
              Bcc     0.6534   -47.280   -16.871   -15.771  0.9594  0.0704  0.2731
 
              Baa    -0.8752    63.330    22.598    21.125 -0.1892  0.9798  0.0654
     9 O(17)  Bbb    -0.8642    62.534    22.314    20.859 -0.2113 -0.1056  0.9717
              Bcc     1.7394  -125.864   -44.912   -41.984  0.9589  0.1701  0.2270
 
              Baa    -0.1030   -54.933   -19.601   -18.324 -0.2318  0.1908  0.9539
    10 H(1)   Bbb    -0.0980   -52.264   -18.649   -17.434  0.1063  0.9797 -0.1701
              Bcc     0.2009   107.197    38.251    35.757  0.9669 -0.0620  0.2474
 
              Baa    -0.0511    -6.854    -2.446    -2.286  0.9140 -0.2778  0.2957
    11 C(13)  Bbb     0.0016     0.219     0.078     0.073 -0.2282  0.2504  0.9409
              Bcc     0.0494     6.635     2.367     2.213  0.3354  0.9274 -0.1655
 
              Baa    -0.1441   -19.341    -6.901    -6.451 -0.2344  0.2708  0.9336
    12 C(13)  Bbb    -0.1265   -16.976    -6.057    -5.663  0.2280  0.9489 -0.2180
              Bcc     0.2706    36.317    12.959    12.114  0.9450 -0.1618  0.2842
 
              Baa    -0.0186    -9.945    -3.549    -3.317 -0.2296  0.2758  0.9334
    13 H(1)   Bbb     0.0004     0.213     0.076     0.071  0.9293 -0.2229  0.2944
              Bcc     0.0182     9.732     3.473     3.246  0.2893  0.9350 -0.2051
 

 ---------------------------------------------------------------------------------

 Calling FoFJK, ICntrl=  10100127 FMM=F ISym2X=0 I1Cent= 0 IOpClX= 1 NMat=1 NMatS=1 NMatT=0.
 -------------------------------------------------------------------
 Center     Atomic                   Forces (Hartrees/Bohr)
 Number     Number              X              Y              Z
 -------------------------------------------------------------------
      1        6           0.000000538    0.000000350   -0.000000660
      2        1          -0.000000453   -0.000000380    0.000000897
      3        1           0.000000164    0.000002461    0.000000938
      4        6           0.000000856   -0.000001553    0.000000408
      5        1          -0.000002762   -0.000000209    0.000000459
      6        1           0.000001898    0.000000798    0.000001233
      7        1          -0.000000901    0.000000871   -0.000000442
      8        8          -0.000008524   -0.000015815    0.000010590
      9        8           0.000002276    0.000019300   -0.000011850
     10        1          -0.000000502   -0.000002499    0.000004214
     11        6           0.000005326    0.000001414   -0.000004034
     12        6           0.000002176   -0.000004838   -0.000000793
     13        1          -0.000000091    0.000000101   -0.000000961
 -------------------------------------------------------------------
 Cartesian Forces:  Max     0.000019300 RMS     0.000005266
 FormGI is forming the generalized inverse of G from B-inverse, IUseBI=4.

 GradGradGradGradGradGradGradGradGradGradGradGradGradGradGradGradGradGrad
 Berny optimization.
 Internal  Forces:  Max     0.000025376 RMS     0.000009017
 Search for a saddle point.
 Step number   1 out of a maximum of  100 on scan point     1 out of    37
 All quantities printed in internal units (Hartrees-Bohrs-Radians)
 Swapping is turned off.
 Second derivative matrix not updated -- analytic derivatives used.
 ITU=  0
     Eigenvalues ---   -0.08587   0.00589   0.01897   0.03425   0.03830
     Eigenvalues ---    0.04105   0.05406   0.06381   0.07773   0.08441
     Eigenvalues ---    0.08474   0.09142   0.09938   0.11642   0.12865
     Eigenvalues ---    0.13333   0.14968   0.16652   0.17512   0.18217
     Eigenvalues ---    0.20430   0.26912   0.31932   0.33864   0.34623
     Eigenvalues ---    0.35109   0.35211   0.35520   0.39718   0.41274
     Eigenvalues ---    0.41656   1.032491000.000001000.000001000.00000
     Eigenvalues --- 1000.000001000.00000
 Eigenvectors required to have negative eigenvalues:
                          R10       R3        R9        A2        A4
   1                    0.67703  -0.65776  -0.16641   0.13248   0.12127
                          R4        A1        A5        A6        A3
   1                    0.09334  -0.08556  -0.07630   0.07079  -0.06948
 RFO step:  Lambda0=2.686147485D-10 Lambda=-1.90128505D-08.
 Linear search not attempted -- option 19 set.
 Iteration  1 RMS(Cart)=  0.00053453 RMS(Int)=  0.00000006
 Iteration  2 RMS(Cart)=  0.00000010 RMS(Int)=  0.00000000
 Iteration  1 RMS(Cart)=  0.00000000 RMS(Int)=  0.00000000
 Variable       Old X    -DE/DX   Delta X   Delta X   Delta X     New X
                                 (Linear)    (Quad)   (Total)
    R1        2.05023  -0.00000   0.00000  -0.00000  -0.00000   2.05023
    R2        2.04979   0.00000   0.00000  -0.00000  -0.00000   2.04979
    R3        2.55975   0.00001   0.00000   0.00006   0.00006   2.55980
    R4        2.66463   0.00000   0.00000   0.00001   0.00001   2.66464
    R5        2.05861  -0.00000   0.00000  -0.00000  -0.00000   2.05861
    R6        2.05496   0.00000   0.00000  -0.00000  -0.00000   2.05496
    R7        2.05633   0.00000   0.00000   0.00001   0.00001   2.05634
    R8        2.69356  -0.00000   0.00000  -0.00001  -0.00001   2.69355
    R9        2.63179  -0.00002   0.00000  -0.00006  -0.00006   2.63173
   R10        2.23211   0.00001   0.00000  -0.00002  -0.00002   2.23208
   R11        2.28926  -0.00000   0.00000  -0.00000  -0.00000   2.28926
   R12        2.00313   0.00000   0.00000   0.00000   0.00000   2.00313
    A1        1.98845   0.00001   0.00000   0.00006   0.00006   1.98851
    A2        1.77783  -0.00000   0.00000  -0.00007  -0.00007   1.77776
    A3        2.02158  -0.00002   0.00000  -0.00009  -0.00009   2.02150
    A4        1.80179   0.00000   0.00000   0.00003   0.00003   1.80182
    A5        2.02531   0.00000   0.00000   0.00000   0.00000   2.02531
    A6        1.80053   0.00002   0.00000   0.00008   0.00008   1.80061
    A7        1.91925  -0.00000   0.00000  -0.00000  -0.00000   1.91924
    A8        1.92569  -0.00000   0.00000  -0.00002  -0.00002   1.92567
    A9        1.92867   0.00000   0.00000   0.00000   0.00000   1.92867
   A10        1.92916  -0.00000   0.00000   0.00000   0.00000   1.92916
   A11        1.83555   0.00000   0.00000   0.00001   0.00001   1.83556
   A12        1.92380  -0.00000   0.00000   0.00001   0.00001   1.92381
   A13        1.88765  -0.00000   0.00000   0.00001   0.00001   1.88766
   A14        1.81399   0.00002   0.00000   0.00008   0.00008   1.81407
   A15        3.08212   0.00002   0.00000   0.00029   0.00029   3.08241
   A16        3.07702   0.00001   0.00000   0.00007   0.00007   3.07709
   A17        3.16864  -0.00000   0.00000  -0.00003  -0.00003   3.16861
   A18        3.08477   0.00000   0.00000  -0.00007  -0.00007   3.08470
   A19        3.16971   0.00000   0.00000  -0.00000  -0.00000   3.16970
   A20        3.13967  -0.00000   0.00000  -0.00000  -0.00000   3.13967
    D1       -2.15630  -0.00003   0.00000   0.00000   0.00000  -2.15630
    D2        1.12853  -0.00000   0.00000  -0.00051  -0.00051   1.12802
    D3       -3.08425  -0.00000   0.00000  -0.00051  -0.00051  -3.08475
    D4       -1.00460  -0.00000   0.00000  -0.00050  -0.00050  -1.00510
    D5       -1.62263  -0.00001   0.00000  -0.00008  -0.00008  -1.62271
         Item               Value     Threshold  Converged?
 Maximum Force            0.000023     0.000450     YES
 RMS     Force            0.000008     0.000300     YES
 Maximum Displacement     0.001407     0.001800     YES
 RMS     Displacement     0.000535     0.001200     YES
 Predicted change in Energy=-9.372118D-09
 Optimization completed.
    -- Stationary point found.
                           ----------------------------
                           !   Optimized Parameters   !
                           ! (Angstroms and Degrees)  !
 --------------------------                            --------------------------
 ! Name  Definition              Value          Derivative Info.                !
 --------------------------------------------------------------------------------
 ! R1    R(1,2)                  1.0849         -DE/DX =    0.0                 !
 ! R2    R(1,3)                  1.0847         -DE/DX =    0.0                 !
 ! R3    R(1,10)                 1.3546         -DE/DX =    0.0                 !
 ! R4    R(1,11)                 1.4101         -DE/DX =    0.0                 !
 ! R5    R(4,5)                  1.0894         -DE/DX =    0.0                 !
 ! R6    R(4,6)                  1.0874         -DE/DX =    0.0                 !
 ! R7    R(4,7)                  1.0882         -DE/DX =    0.0                 !
 ! R8    R(4,8)                  1.4254         -DE/DX =    0.0                 !
 ! R9    R(8,9)                  1.3927         -DE/DX =    0.0                 !
 ! R10   R(9,10)                 1.1812         -DE/DX =    0.0                 !
 ! R11   R(11,12)                1.2114         -DE/DX =    0.0                 !
 ! R12   R(12,13)                1.06           -DE/DX =    0.0                 !
 ! A1    A(2,1,3)              113.9295         -DE/DX =    0.0                 !
 ! A2    A(2,1,10)             101.8623         -DE/DX =    0.0                 !
 ! A3    A(2,1,11)             115.8283         -DE/DX =    0.0                 !
 ! A4    A(3,1,10)             103.2352         -DE/DX =    0.0                 !
 ! A5    A(3,1,11)             116.0419         -DE/DX =    0.0                 !
 ! A6    A(10,1,11)            103.163          -DE/DX =    0.0                 !
 ! A7    A(5,4,6)              109.9647         -DE/DX =    0.0                 !
 ! A8    A(5,4,7)              110.3338         -DE/DX =    0.0                 !
 ! A9    A(5,4,8)              110.5046         -DE/DX =    0.0                 !
 ! A10   A(6,4,7)              110.5326         -DE/DX =    0.0                 !
 ! A11   A(6,4,8)              105.1692         -DE/DX =    0.0                 !
 ! A12   A(7,4,8)              110.2258         -DE/DX =    0.0                 !
 ! A13   A(4,8,9)              108.1543         -DE/DX =    0.0                 !
 ! A14   A(8,9,10)             103.9341         -DE/DX =    0.0                 !
 ! A15   L(1,10,9,5,-1)        176.5925         -DE/DX =    0.0                 !
 ! A16   L(1,11,12,4,-1)       176.3002         -DE/DX =    0.0                 !
 ! A17   L(11,12,13,4,-1)      181.5498         -DE/DX =    0.0                 !
 ! A18   L(1,10,9,5,-2)        176.7442         -DE/DX =    0.0                 !
 ! A19   L(1,11,12,4,-2)       181.6108         -DE/DX =    0.0                 !
 ! A20   L(11,12,13,4,-2)      179.8898         -DE/DX =    0.0                 !
 ! D1    D(2,1,9,8)           -123.5467         -DE/DX =    0.0                 !
 ! D2    D(5,4,8,9)             64.6597         -DE/DX =    0.0                 !
 ! D3    D(6,4,8,9)           -176.7144         -DE/DX =    0.0                 !
 ! D4    D(7,4,8,9)            -57.5595         -DE/DX =    0.0                 !
 ! D5    D(4,8,9,10)           -92.9699         -DE/DX =    0.0                 !
 --------------------------------------------------------------------------------
 Iteration  1 RMS(Cart)=  0.13290793 RMS(Int)=  0.00528705
 Iteration  2 RMS(Cart)=  0.01079466 RMS(Int)=  0.00003211
 Iteration  3 RMS(Cart)=  0.00008748 RMS(Int)=  0.00000000
 Iteration  4 RMS(Cart)=  0.00000000 RMS(Int)=  0.00000000
 Iteration  1 RMS(Cart)=  0.00000000 RMS(Int)=  0.00000000
 GradGradGradGradGradGradGradGradGradGradGradGradGradGradGradGradGradGrad

                          Input orientation:                          
 ---------------------------------------------------------------------
 Center     Atomic      Atomic             Coordinates (Angstroms)
 Number     Number       Type             X           Y           Z
 ---------------------------------------------------------------------
      1          6           0        1.343800   -1.218533    0.302269
      2          1           0        1.720329   -1.921506   -0.433353
      3          1           0        1.426103   -1.566841    1.326225
      4          6           0       -1.687099    0.921885    0.489875
      5          1           0       -0.864399    0.975346    1.201938
      6          1           0       -1.877330    1.905831    0.067759
      7          1           0       -2.581530    0.534790    0.973879
      8          8           0       -1.333571    0.101520   -0.620838
      9          8           0       -1.147642   -1.198787   -0.158114
     10          1           0        0.010266   -1.257624    0.067592
     11          6           0        1.669348    0.135459    0.080889
     12          6           0        1.868208    1.311095   -0.133304
     13          1           0        2.070345    2.334337   -0.322351
 ---------------------------------------------------------------------
                    Distance matrix (angstroms):
                    1          2          3          4          5
     1  C    0.000000
     2  H    1.084936   0.000000
     3  H    1.084702   1.818920   0.000000
     4  C    3.715229   4.532967   4.072501   0.000000
     5  H    3.240162   4.212688   3.424115   1.089369   0.000000
     6  H    4.493587   5.276625   4.955387   1.087437   1.782749
     7  H    4.351254   5.149726   4.538956   1.088168   1.787355
     8  O    3.124577   3.667982   3.766999   1.425364   2.075139
     9  O    2.533698   2.970410   2.993809   2.282138   2.580081
    10  H    1.354590   1.901579   1.919471   2.794571   2.652910
    11  C    1.410066   2.120884   2.123171   3.471522   2.895174
    12  C    2.619875   3.249863   3.257023   3.630432   3.059859
    13  H    3.679796   4.271654   4.283928   4.095499   3.575337
                    6          7          8          9         10
     6  H    0.000000
     7  H    1.787933   0.000000
     8  O    2.006334   2.070808   0.000000
     9  O    3.197205   2.518478   1.392653   0.000000
    10  H    3.683812   3.278950   2.031528   1.181167   0.000000
    11  C    3.964003   4.361979   3.084006   3.126143   2.166428
    12  C    3.797788   4.650663   3.457188   3.923706   3.176574
    13  H    3.989980   5.153496   4.081814   4.781775   4.159106
                   11         12         13
    11  C    0.000000
    12  C    1.211422   0.000000
    13  H    2.271225   1.060010   0.000000
 Symmetry turned off by external request.
 Stoichiometry    C4H7O2(2)
 Framework group  C1[X(C4H7O2)]
 Deg. of freedom    33
 Full point group                 C1      NOp   1
 Rotational constants (GHZ):           4.8240737           2.3314566           1.7345625
 Standard basis: CC-pVTZ (5D, 7F)
   278 basis functions,   431 primitive gaussians,   315 cartesian basis functions
    24 alpha electrons       23 beta electrons
       nuclear repulsion energy       221.8311998633 Hartrees.
 NAtoms=   13 NActive=   13 NUniq=   13 SFac= 1.00D+00 NAtFMM=   60 NAOKFM=F Big=F
 Integral buffers will be    131072 words long.
 Raffenetti 2 integral format.
 Two-electron integral symmetry is turned off.
 Nuclear repulsion after empirical dispersion term =      221.8247274973 Hartrees.
 One-electron integrals computed using PRISM.
 NBasis=   278 RedAO= T EigKep=  5.21D-05  NBF=   278
 NBsUse=   278 1.00D-06 EigRej= -1.00D+00 NBFU=   278
 Initial guess from the checkpoint file:  "/localscratch/350165/Gau-22679.chk"
 B after Tr=    -0.031377   -0.035155    0.043763
         Rot=    0.999964    0.007787    0.000173   -0.003427 Ang=   0.98 deg.
 Initial guess <Sx>= 0.0000 <Sy>= 0.0000 <Sz>= 0.5000 <S**2>= 0.7948 S= 0.5221
 ExpMin= 1.03D-01 ExpMax= 1.53D+04 ExpMxC= 5.22D+02 IAcc=3 IRadAn=         5 AccDes= 0.00D+00
 Harris functional with IExCor=  419 and IRadAn=       5 diagonalized for initial guess.
 HarFok:  IExCor=  419 AccDes= 0.00D+00 IRadAn=         5 IDoV= 1 UseB2=F ITyADJ=14
 ICtDFT=  3500011 ScaDFX=  1.000000  1.000000  1.000000  1.000000
 FoFCou: FMM=F IPFlag=           0 FMFlag=      100000 FMFlg1=           0
         NFxFlg=           0 DoJE=T BraDBF=F KetDBF=T FulRan=T
         wScrn=  0.000000 ICntrl=       500 IOpCl=  0 I1Cent=   200000004 NGrid=           0
         NMat0=    1 NMatS0=      1 NMatT0=    0 NMatD0=    1 NMtDS0=    0 NMtDT0=    0
 Symmetry not used in FoFCou.
 Requested convergence on RMS density matrix=1.00D-08 within 500 cycles.
 Requested convergence on MAX density matrix=1.00D-06.
 Requested convergence on             energy=1.00D-06.
 No special actions if energy rises.
 Integral accuracy reduced to 1.0D-05 until final iterations.
 Initial convergence to 1.0D-05 achieved.  Increase integral accuracy.
 SCF Done:  E(UB2PLYPD3) =  -306.340129327     A.U. after   17 cycles
            NFock= 17  Conv=0.35D-08     -V/T= 2.0043
 <Sx>= 0.0000 <Sy>= 0.0000 <Sz>= 0.5000 <S**2>= 0.7944 S= 0.5220
 <L.S>=  0.00000000000    
 Annihilation of the first spin contaminant:
 S**2 before annihilation     0.7944,   after     0.7513
 DoSCS=T DFT=T ScalE2(SS,OS)=  0.270000  0.270000
 ExpMin= 1.03D-01 ExpMax= 1.53D+04 ExpMxC= 5.22D+02 IAcc=3 IRadAn=         5 AccDes= 0.00D+00
 HarFok:  IExCor=  205 AccDes= 0.00D+00 IRadAn=         5 IDoV=-2 UseB2=F ITyADJ=14
 ICtDFT= 12500011 ScaDFX=  1.000000  1.000000  1.000000  1.000000
 Range of M.O.s used for correlation:     7   278
 NBasis=   278 NAE=    24 NBE=    23 NFC=     6 NFV=     0
 NROrb=    272 NOA=    18 NOB=    17 NVA=   254 NVB=   255

 **** Warning!!: The largest alpha MO coefficient is  0.47042585D+02


 **** Warning!!: The largest beta MO coefficient is  0.47106062D+02

 DoSCS=T DFT=T ScalE2(SS,OS)=  0.270000  0.270000
 Disk-based method using ON**2 memory for 18 occupieds at a time.
 Estimated scratch disk usage=  1036960912 words.
 Actual    scratch disk usage=   950068368 words.
 JobTyp=2 Pass  1:  I=   7 to  24 NPSUse= 40 ParTrn=T ParDer=T DoDerP=T.
 (rs|ai) integrals will be sorted in core.
 Actual    scratch disk usage=   950068368 words.
 JobTyp=3 Pass  1:  I=   7 to  23 NPSUse= 40 ParTrn=T ParDer=T DoDerP=T.
 (rs|ai) integrals will be sorted in core.
 Spin components of T(2) and E(2):
     alpha-alpha T2 =       0.6910528691D-01 E2=     -0.4728345694D-01
     alpha-beta  T2 =       0.4088436283D+00 E2=     -0.2835640985D+00
     beta-beta   T2 =       0.7815640161D-01 E2=     -0.4687136357D-01
 (S**2,0)=  0.79442D+00           (S**2,1)=  0.74792D+00
 Scaling Projection term by:   0.270000
 E(PUHF)=      -0.30634903329D+03        E(PMP2)=      -0.30671901519D+03
 E2(B2PLYPD3) =    -0.3777189190D+00 E(B2PLYPD3) =    -0.30671784824568D+03
          IDoAtm=1111111111111
          Differentiating once with respect to electric field.
                with respect to dipole field.
          Differentiating once with respect to nuclear coordinates.
 Keep R1 and R2 ints in memory in canonical form, NReq=1549876386.
          There are     1 degrees of freedom in the 1st order CPHF.  IDoFFX=0 NUNeed=     1.
 LinEq1:  Iter=  0 NonCon=     1 RMS=1.17D-03 Max=6.07D-02 NDo=     1
 AX will form     1 AO Fock derivatives at one time.
 LinEq1:  Iter=  1 NonCon=     1 RMS=4.28D-04 Max=8.91D-03 NDo=     1
 LinEq1:  Iter=  2 NonCon=     1 RMS=2.89D-04 Max=7.81D-03 NDo=     1
 LinEq1:  Iter=  3 NonCon=     1 RMS=1.88D-04 Max=6.62D-03 NDo=     1
 LinEq1:  Iter=  4 NonCon=     1 RMS=1.06D-04 Max=4.75D-03 NDo=     1
 LinEq1:  Iter=  5 NonCon=     1 RMS=7.97D-05 Max=2.77D-03 NDo=     1
 LinEq1:  Iter=  6 NonCon=     1 RMS=3.46D-05 Max=9.96D-04 NDo=     1
 LinEq1:  Iter=  7 NonCon=     1 RMS=8.85D-06 Max=2.56D-04 NDo=     1
 LinEq1:  Iter=  8 NonCon=     1 RMS=3.94D-06 Max=8.51D-05 NDo=     1
 LinEq1:  Iter=  9 NonCon=     1 RMS=2.53D-06 Max=7.83D-05 NDo=     1
 LinEq1:  Iter= 10 NonCon=     1 RMS=1.69D-06 Max=5.19D-05 NDo=     1
 LinEq1:  Iter= 11 NonCon=     1 RMS=9.77D-07 Max=1.74D-05 NDo=     1
 LinEq1:  Iter= 12 NonCon=     1 RMS=3.53D-07 Max=6.60D-06 NDo=     1
 LinEq1:  Iter= 13 NonCon=     1 RMS=1.16D-07 Max=1.82D-06 NDo=     1
 LinEq1:  Iter= 14 NonCon=     1 RMS=4.50D-08 Max=8.33D-07 NDo=     1
 LinEq1:  Iter= 15 NonCon=     1 RMS=1.91D-08 Max=5.53D-07 NDo=     1
 LinEq1:  Iter= 16 NonCon=     1 RMS=8.22D-09 Max=2.98D-07 NDo=     1
 LinEq1:  Iter= 17 NonCon=     1 RMS=3.13D-09 Max=1.12D-07 NDo=     1
 LinEq1:  Iter= 18 NonCon=     1 RMS=9.41D-10 Max=3.68D-08 NDo=     1
 LinEq1:  Iter= 19 NonCon=     1 RMS=2.91D-10 Max=9.87D-09 NDo=     1
 LinEq1:  Iter= 20 NonCon=     1 RMS=8.05D-11 Max=2.54D-09 NDo=     1
 LinEq1:  Iter= 21 NonCon=     0 RMS=2.50D-11 Max=6.73D-10 NDo=     1
 Linear equations converged to 1.000D-10 1.000D-09 after    21 iterations.
 End of Minotr F.D. properties file   721 does not exist.
 End of Minotr F.D. properties file   722 does not exist.
 End of Minotr F.D. properties file   788 does not exist.
 Calling FoFJK, ICntrl=  10002127 FMM=F ISym2X=0 I1Cent= 0 IOpClX= 1 NMat=1 NMatS=1 NMatT=0.
 -------------------------------------------------------------------
 Center     Atomic                   Forces (Hartrees/Bohr)
 Number     Number              X              Y              Z
 -------------------------------------------------------------------
      1        6          -0.000366074   -0.000204369    0.000303453
      2        1           0.000120617    0.000099511    0.000012351
      3        1          -0.000278944    0.000033360    0.000043878
      4        6          -0.000305354    0.000163273    0.001233224
      5        1          -0.000613890    0.000026295   -0.000270427
      6        1          -0.000019253    0.000007296   -0.000052359
      7        1          -0.000222484    0.000013118   -0.000213223
      8        8           0.000430926   -0.000079751   -0.000053392
      9        8           0.000078263   -0.000003211   -0.000189204
     10        1           0.000162333   -0.000224554    0.000069845
     11        6           0.000667412    0.000446459   -0.000834300
     12        6           0.000316070   -0.000302602   -0.000074318
     13        1           0.000030378    0.000025175    0.000024470
 -------------------------------------------------------------------
 Cartesian Forces:  Max     0.001233224 RMS     0.000336707

 GradGradGradGradGradGradGradGradGradGradGradGradGradGradGradGradGradGrad
 Berny optimization.
 FormGI is forming the generalized inverse of G from B-inverse, IUseBI=4.
 Internal  Forces:  Max     0.003320979 RMS     0.001140091
 Search for a saddle point.
 Step number   1 out of a maximum of  100 on scan point     2 out of    37
 All quantities printed in internal units (Hartrees-Bohrs-Radians)
 Swapping is turned off.
 Second derivative matrix not updated -- first step.
 ITU=  0
     Eigenvalues ---   -0.08587   0.00589   0.01897   0.03425   0.03830
     Eigenvalues ---    0.04105   0.05406   0.06381   0.07773   0.08441
     Eigenvalues ---    0.08474   0.09142   0.09938   0.11642   0.12865
     Eigenvalues ---    0.13333   0.14968   0.16652   0.17512   0.18217
     Eigenvalues ---    0.20430   0.26912   0.31932   0.33864   0.34623
     Eigenvalues ---    0.35109   0.35211   0.35520   0.39718   0.41274
     Eigenvalues ---    0.41656   1.032491000.000001000.000001000.00000
     Eigenvalues --- 1000.000001000.00000
 Eigenvectors required to have negative eigenvalues:
                          R10       R3        R9        A2        A4
   1                    0.67703  -0.65776  -0.16641   0.13247   0.12127
                          R4        A1        A5        A6        A3
   1                    0.09334  -0.08556  -0.07630   0.07079  -0.06949
 RFO step:  Lambda0=3.608209713D-07 Lambda=-3.62550480D-04.
 Linear search not attempted -- option 19 set.
 Iteration  1 RMS(Cart)=  0.08608287 RMS(Int)=  0.00128786
 Iteration  2 RMS(Cart)=  0.00187592 RMS(Int)=  0.00000136
 Iteration  3 RMS(Cart)=  0.00000223 RMS(Int)=  0.00000039
 Iteration  4 RMS(Cart)=  0.00000000 RMS(Int)=  0.00000039
 Iteration  1 RMS(Cart)=  0.00000000 RMS(Int)=  0.00000000
 Variable       Old X    -DE/DX   Delta X   Delta X   Delta X     New X
                                 (Linear)    (Quad)   (Total)
    R1        2.05023  -0.00003   0.00000   0.00019   0.00019   2.05042
    R2        2.04979   0.00001   0.00000  -0.00023  -0.00023   2.04956
    R3        2.55980   0.00039   0.00000  -0.00339  -0.00339   2.55641
    R4        2.66464   0.00054   0.00000   0.00149   0.00149   2.66613
    R5        2.05861  -0.00065   0.00000  -0.00134  -0.00134   2.05727
    R6        2.05496   0.00003   0.00000   0.00008   0.00008   2.05504
    R7        2.05634   0.00008   0.00000   0.00021   0.00021   2.05655
    R8        2.69355   0.00094   0.00000   0.00165   0.00165   2.69520
    R9        2.63173   0.00003   0.00000   0.00093   0.00093   2.63266
   R10        2.23208   0.00057   0.00000  -0.00028  -0.00028   2.23181
   R11        2.28926  -0.00020   0.00000  -0.00031  -0.00031   2.28895
   R12        2.00313   0.00003   0.00000   0.00001   0.00001   2.00314
    A1        1.98851   0.00073   0.00000   0.00486   0.00486   1.99337
    A2        1.77776  -0.00032   0.00000  -0.00506  -0.00506   1.77270
    A3        2.02150  -0.00261   0.00000  -0.00998  -0.00998   2.01152
    A4        1.80182  -0.00010   0.00000  -0.00194  -0.00194   1.79988
    A5        2.02531   0.00058   0.00000   0.00203   0.00203   2.02735
    A6        1.80061   0.00219   0.00000   0.01106   0.01106   1.81167
    A7        1.91924  -0.00001   0.00000   0.00172   0.00172   1.92097
    A8        1.92567   0.00009   0.00000   0.00043   0.00043   1.92610
    A9        1.92867   0.00042   0.00000   0.00111   0.00111   1.92978
   A10        1.92916  -0.00009   0.00000  -0.00148  -0.00148   1.92767
   A11        1.83556  -0.00013   0.00000  -0.00124  -0.00124   1.83432
   A12        1.92381  -0.00028   0.00000  -0.00060  -0.00061   1.92321
   A13        1.88766  -0.00020   0.00000  -0.00170  -0.00170   1.88596
   A14        1.81407   0.00213   0.00000   0.00187   0.00187   1.81594
   A15        3.08241   0.00284   0.00000   0.02183   0.02183   3.10423
   A16        3.07709   0.00095   0.00000   0.00941   0.00941   3.08649
   A17        3.16861   0.00004   0.00000  -0.00277  -0.00277   3.16583
   A18        3.08470   0.00011   0.00000   0.00062   0.00062   3.08532
   A19        3.16970   0.00003   0.00000  -0.00221  -0.00221   3.16750
   A20        3.13967  -0.00006   0.00000  -0.00032  -0.00032   3.13935
    D1       -1.98176  -0.00289   0.00000   0.00000   0.00000  -1.98176
    D2        1.12802  -0.00016   0.00000  -0.02234  -0.02234   1.10568
    D3       -3.08475  -0.00003   0.00000  -0.02044  -0.02044  -3.10520
    D4       -1.00510  -0.00036   0.00000  -0.02322  -0.02322  -1.02832
    D5       -1.62271  -0.00332   0.00000  -0.06473  -0.06473  -1.68744
         Item               Value     Threshold  Converged?
 Maximum Force            0.003321     0.000450     NO 
 RMS     Force            0.001051     0.000300     NO 
 Maximum Displacement     0.233993     0.001800     NO 
 RMS     Displacement     0.086363     0.001200     NO 
 Predicted change in Energy=-1.822792D-04
 GradGradGradGradGradGradGradGradGradGradGradGradGradGradGradGradGradGrad

                          Input orientation:                          
 ---------------------------------------------------------------------
 Center     Atomic      Atomic             Coordinates (Angstroms)
 Number     Number       Type             X           Y           Z
 ---------------------------------------------------------------------
      1          6           0        1.365247   -1.213702    0.293730
      2          1           0        1.713549   -1.921242   -0.451505
      3          1           0        1.458525   -1.562785    1.316354
      4          6           0       -1.761493    0.918323    0.505732
      5          1           0       -0.986455    0.969728    1.268527
      6          1           0       -1.937779    1.905866    0.085852
      7          1           0       -2.680390    0.514427    0.926271
      8          8           0       -1.330195    0.118747   -0.593728
      9          8           0       -1.131106   -1.180192   -0.131159
     10          1           0        0.029105   -1.233503    0.083038
     11          6           0        1.722859    0.130996    0.060473
     12          6           0        1.960792    1.297534   -0.162519
     13          1           0        2.194169    2.312778   -0.358600
 ---------------------------------------------------------------------
                    Distance matrix (angstroms):
                    1          2          3          4          5
     1  C    0.000000
     2  H    1.085036   0.000000
     3  H    1.084583   1.821773   0.000000
     4  C    3.790379   4.588610   4.145060   0.000000
     5  H    3.353818   4.313495   3.520488   1.088661   0.000000
     6  H    4.548065   5.316738   5.008049   1.087482   1.783282
     7  H    4.444515   5.209361   4.647321   1.088282   1.787136
     8  O    3.135029   3.666900   3.775305   1.426237   2.076131
     9  O    2.532475   2.956998   2.991298   2.281837   2.569475
    10  H    1.352796   1.896332   1.916439   2.831124   2.700180
    11  C    1.410854   2.115157   2.125090   3.599840   3.082734
    12  C    2.620905   3.241167   3.258951   3.800758   3.292660
    13  H    3.680857   4.262225   4.285631   4.282386   3.816765
                    6          7          8          9         10
     6  H    0.000000
     7  H    1.787142   0.000000
     8  O    2.006186   2.071228   0.000000
     9  O    3.197119   2.527879   1.393144   0.000000
    10  H    3.704628   3.332816   2.033294   1.181021   0.000000
    11  C    4.068302   4.503912   3.122382   3.146594   2.175125
    12  C    3.953556   4.831075   3.522225   3.962315   3.193408
    13  H    4.175656   5.352222   4.158148   4.828046   4.178355
                   11         12         13
    11  C    0.000000
    12  C    1.211259   0.000000
    13  H    2.271107   1.060016   0.000000
 Symmetry turned off by external request.
 Stoichiometry    C4H7O2(2)
 Framework group  C1[X(C4H7O2)]
 Deg. of freedom    33
 Full point group                 C1      NOp   1
 Rotational constants (GHZ):           4.8954557           2.2229235           1.6803706
 Standard basis: CC-pVTZ (5D, 7F)
   278 basis functions,   431 primitive gaussians,   315 cartesian basis functions
    24 alpha electrons       23 beta electrons
       nuclear repulsion energy       220.4633603056 Hartrees.
 NAtoms=   13 NActive=   13 NUniq=   13 SFac= 1.00D+00 NAtFMM=   60 NAOKFM=F Big=F
 Integral buffers will be    131072 words long.
 Raffenetti 2 integral format.
 Two-electron integral symmetry is turned off.
 Nuclear repulsion after empirical dispersion term =      220.4570495213 Hartrees.
 One-electron integrals computed using PRISM.
 NBasis=   278 RedAO= T EigKep=  5.12D-05  NBF=   278
 NBsUse=   278 1.00D-06 EigRej= -1.00D+00 NBFU=   278
 Initial guess from the checkpoint file:  "/localscratch/350165/Gau-22679.chk"
 B after Tr=     0.024118    0.006495    0.006385
         Rot=    0.999992    0.001517   -0.003503    0.001361 Ang=   0.46 deg.
 Initial guess <Sx>= 0.0000 <Sy>= 0.0000 <Sz>= 0.5000 <S**2>= 0.7943 S= 0.5219
 ExpMin= 1.03D-01 ExpMax= 1.53D+04 ExpMxC= 5.22D+02 IAcc=3 IRadAn=         5 AccDes= 0.00D+00
 Harris functional with IExCor=  419 and IRadAn=       5 diagonalized for initial guess.
 HarFok:  IExCor=  419 AccDes= 0.00D+00 IRadAn=         5 IDoV= 1 UseB2=F ITyADJ=14
 ICtDFT=  3500011 ScaDFX=  1.000000  1.000000  1.000000  1.000000
 FoFCou: FMM=F IPFlag=           0 FMFlag=      100000 FMFlg1=           0
         NFxFlg=           0 DoJE=T BraDBF=F KetDBF=T FulRan=T
         wScrn=  0.000000 ICntrl=       500 IOpCl=  0 I1Cent=   200000004 NGrid=           0
         NMat0=    1 NMatS0=      1 NMatT0=    0 NMatD0=    1 NMtDS0=    0 NMtDT0=    0
 Symmetry not used in FoFCou.
 Requested convergence on RMS density matrix=1.00D-08 within 500 cycles.
 Requested convergence on MAX density matrix=1.00D-06.
 Requested convergence on             energy=1.00D-06.
 No special actions if energy rises.
 Integral accuracy reduced to 1.0D-05 until final iterations.
 Initial convergence to 1.0D-05 achieved.  Increase integral accuracy.
 SCF Done:  E(UB2PLYPD3) =  -306.340533477     A.U. after   15 cycles
            NFock= 15  Conv=0.79D-08     -V/T= 2.0044
 <Sx>= 0.0000 <Sy>= 0.0000 <Sz>= 0.5000 <S**2>= 0.7943 S= 0.5219
 <L.S>=  0.00000000000    
 Annihilation of the first spin contaminant:
 S**2 before annihilation     0.7943,   after     0.7513
 DoSCS=T DFT=T ScalE2(SS,OS)=  0.270000  0.270000
 ExpMin= 1.03D-01 ExpMax= 1.53D+04 ExpMxC= 5.22D+02 IAcc=3 IRadAn=         5 AccDes= 0.00D+00
 HarFok:  IExCor=  205 AccDes= 0.00D+00 IRadAn=         5 IDoV=-2 UseB2=F ITyADJ=14
 ICtDFT= 12500011 ScaDFX=  1.000000  1.000000  1.000000  1.000000
 Range of M.O.s used for correlation:     7   278
 NBasis=   278 NAE=    24 NBE=    23 NFC=     6 NFV=     0
 NROrb=    272 NOA=    18 NOB=    17 NVA=   254 NVB=   255

 **** Warning!!: The largest alpha MO coefficient is  0.45674278D+02


 **** Warning!!: The largest beta MO coefficient is  0.44388925D+02

 DoSCS=T DFT=T ScalE2(SS,OS)=  0.270000  0.270000
 Disk-based method using ON**2 memory for 18 occupieds at a time.
 Estimated scratch disk usage=  1030801402 words.
 Actual    scratch disk usage=   944717818 words.
 JobTyp=2 Pass  1:  I=   7 to  24 NPSUse= 40 ParTrn=T ParDer=T DoDerP=T.
 (rs|ai) integrals will be sorted in core.
 Actual    scratch disk usage=   944717818 words.
 JobTyp=3 Pass  1:  I=   7 to  23 NPSUse= 40 ParTrn=T ParDer=T DoDerP=T.
 (rs|ai) integrals will be sorted in core.
 Spin components of T(2) and E(2):
     alpha-alpha T2 =       0.6897957929D-01 E2=     -0.4722105158D-01
     alpha-beta  T2 =       0.4085268878D+00 E2=     -0.2834139669D+00
     beta-beta   T2 =       0.7793763562D-01 E2=     -0.4678340518D-01
 (S**2,0)=  0.79433D+00           (S**2,1)=  0.74788D+00
 Scaling Projection term by:   0.270000
 E(PUHF)=      -0.30634942575D+03        E(PMP2)=      -0.30671911602D+03
 E2(B2PLYPD3) =    -0.3774184237D+00 E(B2PLYPD3) =    -0.30671795190110D+03
[...]
  Beta virt. eigenvalues --    4.17941   4.19287   4.21342   4.27354   4.31954
  Beta virt. eigenvalues --    4.34931   4.36452   4.38810   4.41661   4.42876
  Beta virt. eigenvalues --    4.46433   4.49322   4.53724   4.65352   4.66941
  Beta virt. eigenvalues --    4.70435   4.76848   4.81729   4.83960   4.92886
  Beta virt. eigenvalues --    4.94890   4.99847   5.01206   5.03810   5.06842
  Beta virt. eigenvalues --    5.06963   5.16052   5.19232   5.24509   5.27177
  Beta virt. eigenvalues --    5.29117   5.31485   5.31828   5.35385   5.36918
  Beta virt. eigenvalues --    5.39827   5.40814   5.47118   5.48704   5.68219
  Beta virt. eigenvalues --    5.69593   5.72980   5.78460   5.82191   5.89268
  Beta virt. eigenvalues --    5.92175   5.94469   5.97948   6.03481   6.04741
  Beta virt. eigenvalues --    6.08388   6.11123   6.25159   6.29508   6.32323
  Beta virt. eigenvalues --    6.40321   6.41736   6.66430   6.76400   6.77165
  Beta virt. eigenvalues --    6.82927   6.98024   7.06684   7.07979   7.16845
  Beta virt. eigenvalues --    7.43632   7.45724   7.60507   7.73515   8.45385
  Beta virt. eigenvalues --    9.85515  10.71243  13.42990  13.76012  16.77506
          Condensed to atoms (all electrons):
               1          2          3          4          5          6
     1  C    5.040402   0.416878   0.413326  -0.003271   0.000244   0.000456
     2  H    0.416878   0.525856  -0.029107  -0.000010   0.000045   0.000016
     3  H    0.413326  -0.029107   0.543776   0.000489  -0.001060  -0.000036
     4  C   -0.003271  -0.000010   0.000489   4.612971   0.395215   0.395900
     5  H    0.000244   0.000045  -0.001060   0.395215   0.664237  -0.034269
     6  H    0.000456   0.000016  -0.000036   0.395900  -0.034269   0.588573
     7  H   -0.000795   0.000010   0.000047   0.414211  -0.054438  -0.027236
     8  O    0.000825   0.000370   0.000342   0.293335  -0.047979  -0.025711
     9  O   -0.067076  -0.000503  -0.000846  -0.043761  -0.001815   0.006664
    10  H    0.196920  -0.007281  -0.005919   0.001969   0.004192  -0.000897
    11  C    0.405674  -0.042731  -0.049985   0.000329  -0.000201   0.000271
    12  C   -0.087315  -0.004255  -0.004304  -0.003119  -0.001198   0.000270
    13  H    0.000687  -0.000088  -0.000079  -0.000107   0.000035   0.000020
               7          8          9         10         11         12
     1  C   -0.000795   0.000825  -0.067076   0.196920   0.405674  -0.087315
     2  H    0.000010   0.000370  -0.000503  -0.007281  -0.042731  -0.004255
     3  H    0.000047   0.000342  -0.000846  -0.005919  -0.049985  -0.004304
     4  C    0.414211   0.293335  -0.043761   0.001969   0.000329  -0.003119
     5  H   -0.054438  -0.047979  -0.001815   0.004192  -0.000201  -0.001198
     6  H   -0.027236  -0.025711   0.006664  -0.000897   0.000271   0.000270
     7  H    0.601105  -0.036504   0.004174   0.000559   0.000613   0.000351
     8  O   -0.036504   7.929750   0.076002  -0.026342   0.001119   0.005103
     9  O    0.004174   0.076002   8.060309   0.197657  -0.010696   0.000491
    10  H    0.000559  -0.026342   0.197657   0.418828   0.001143   0.001275
    11  C    0.000613   0.001119  -0.010696   0.001143   4.970629   0.786311
    12  C    0.000351   0.005103   0.000491   0.001275   0.786311   5.052623
    13  H   -0.000001   0.000015   0.000024   0.000024  -0.058808   0.413792
              13
     1  C    0.000687
     2  H   -0.000088
     3  H   -0.000079
     4  C   -0.000107
     5  H    0.000035
     6  H    0.000020
     7  H   -0.000001
     8  O    0.000015
     9  O    0.000024
    10  H    0.000024
    11  C   -0.058808
    12  C    0.413792
    13  H    0.471639
          Atomic-Atomic Spin Densities.
               1          2          3          4          5          6
     1  C    0.567686   0.004973   0.005034   0.000981  -0.004090   0.000038
     2  H    0.004973  -0.024928   0.003095  -0.000033   0.000120  -0.000003
     3  H    0.005034   0.003095  -0.026361  -0.000157   0.000681  -0.000001
     4  C    0.000981  -0.000033  -0.000157  -0.008569   0.003307   0.000764
     5  H   -0.004090   0.000120   0.000681   0.003307   0.002764  -0.000605
     6  H    0.000038  -0.000003  -0.000001   0.000764  -0.000605  -0.001580
     7  H    0.000864  -0.000021  -0.000087  -0.001108  -0.000756   0.000553
     8  O    0.011080  -0.000371  -0.000477   0.000167  -0.001694   0.000287
     9  O   -0.066090   0.002198   0.002618  -0.002034   0.003849  -0.000184
    10  H    0.037392   0.001918   0.002280   0.001443  -0.003356   0.000099
    11  C   -0.017315  -0.000806  -0.000553  -0.001399   0.002318  -0.000122
    12  C   -0.016111  -0.001191  -0.001217  -0.000639   0.001014  -0.000044
    13  H   -0.000183  -0.000000   0.000001   0.000031  -0.000053   0.000003
               7          8          9         10         11         12
     1  C    0.000864   0.011080  -0.066090   0.037392  -0.017315  -0.016111
     2  H   -0.000021  -0.000371   0.002198   0.001918  -0.000806  -0.001191
     3  H   -0.000087  -0.000477   0.002618   0.002280  -0.000553  -0.001217
     4  C   -0.001108   0.000167  -0.002034   0.001443  -0.001399  -0.000639
     5  H   -0.000756  -0.001694   0.003849  -0.003356   0.002318   0.001014
     6  H    0.000553   0.000287  -0.000184   0.000099  -0.000122  -0.000044
     7  H    0.001880  -0.000247  -0.000046   0.001218  -0.000300  -0.000123
     8  O   -0.000247   0.097738  -0.050282   0.009021  -0.003686  -0.002825
     9  O   -0.000046  -0.050282   0.550929  -0.034560   0.005462   0.000487
    10  H    0.001218   0.009021  -0.034560  -0.106280   0.006292  -0.000331
    11  C   -0.000300  -0.003686   0.005462   0.006292  -0.227201   0.004343
    12  C   -0.000123  -0.002825   0.000487  -0.000331   0.004343   0.381686
    13  H    0.000004   0.000053  -0.000025  -0.000022  -0.001263   0.003539
              13
     1  C   -0.000183
     2  H   -0.000000
     3  H    0.000001
     4  C    0.000031
     5  H   -0.000053
     6  H    0.000003
     7  H    0.000004
     8  O    0.000053
     9  O   -0.000025
    10  H   -0.000022
    11  C   -0.001263
    12  C    0.003539
    13  H   -0.013996
 Mulliken charges and spin densities:
               1          2
     1  C   -0.316957   0.524259
     2  H    0.140799  -0.015048
     3  H    0.133353  -0.015145
     4  C   -0.064151  -0.007247
     5  H    0.076991   0.003499
     6  H    0.095980  -0.000795
     7  H    0.097903   0.001831
     8  O   -0.170324   0.058764
     9  O   -0.220623   0.412322
    10  H    0.217872  -0.084886
    11  C   -0.003666  -0.234230
    12  C   -0.160025   0.368587
    13  H    0.172848  -0.011911
 Sum of Mulliken charges =  -0.00000   1.00000
 Mulliken charges and spin densities with hydrogens summed into heavy atoms:
               1          2
     1  C   -0.042804   0.494066
     4  C    0.206724  -0.002712
     8  O   -0.170324   0.058764
     9  O   -0.002751   0.327436
    11  C   -0.003666  -0.234230
    12  C    0.012823   0.356676
 Electronic spatial extent (au):  <R**2>=            742.6426
 Charge=             -0.0000 electrons
 Dipole moment (field-independent basis, Debye):
    X=              0.7236    Y=             -2.0466    Z=             -0.4670  Tot=              2.2204
 Quadrupole moment (field-independent basis, Debye-Ang):
   XX=            -35.4802   YY=            -37.8945   ZZ=            -33.2921
   XY=              3.7180   XZ=             -0.2219   YZ=             -4.3571
 Traceless Quadrupole moment (field-independent basis, Debye-Ang):
   XX=              0.0754   YY=             -2.3389   ZZ=              2.2635
   XY=              3.7180   XZ=             -0.2219   YZ=             -4.3571
 Octapole moment (field-independent basis, Debye-Ang**2):
  XXX=            -26.6815  YYY=            -28.6859  ZZZ=            -29.9559  XYY=              1.5776
  XXY=            -12.8769  XXZ=             -6.6845  XZZ=              2.2725  YZZ=            -16.4557
  YYZ=            -10.4511  XYZ=             -5.0871
 Hexadecapole moment (field-independent basis, Debye-Ang**3):
 XXXX=           -585.3379 YYYY=           -200.8555 ZZZZ=           -184.7574 XXXY=             26.9369
 XXXZ=             19.0488 YYYX=             32.3151 YYYZ=             30.0944 ZZZX=             27.3738
 ZZZY=             19.1493 XXYY=           -124.7346 XXZZ=           -114.5640 YYZZ=            -59.5023
 XXYZ=             -4.7668 YYXZ=              8.9958 ZZXY=             -1.0418
 N-N= 2.212405597160D+02 E-N=-1.160225986734D+03  KE= 3.050134001667D+02
                          Isotropic Fermi Contact Couplings
        Atom                 a.u.       MegaHertz       Gauss      10(-4) cm-1
     1  C(13)              0.08001      89.94245      32.09370      30.00157
     2  H(1)              -0.00334     -14.94035      -5.33109      -4.98356
     3  H(1)              -0.00348     -15.56767      -5.55493      -5.19282
     4  C(13)             -0.00502      -5.64780      -2.01528      -1.88390
     5  H(1)               0.00270      12.04934       4.29951       4.01923
     6  H(1)              -0.00008      -0.35089      -0.12521      -0.11705
     7  H(1)               0.00098       4.37871       1.56243       1.46058
     8  O(17)              0.02262     -13.71443      -4.89365      -4.57464
     9  O(17)              0.01806     -10.95080      -3.90752      -3.65280
    10  H(1)              -0.02411    -107.77025     -38.45511     -35.94829
    11  C(13)             -0.01669     -18.76024      -6.69412      -6.25774
    12  C(13)              0.00135       1.52155       0.54293       0.50753
    13  H(1)              -0.00338     -15.09974      -5.38796      -5.03673
 --------------------------------------------------------
       Center         ----  Spin Dipole Couplings  ----
                      3XX-RR        3YY-RR        3ZZ-RR
 --------------------------------------------------------
     1   Atom        0.435962     -0.207781     -0.228182
     2   Atom        0.007267      0.023974     -0.031241
     3   Atom       -0.001258     -0.015673      0.016931
     4   Atom       -0.001548      0.005535     -0.003988
     5   Atom       -0.002131      0.007201     -0.005069
     6   Atom       -0.000500      0.002638     -0.002138
     7   Atom        0.003043      0.001170     -0.004213
     8   Atom        0.476574     -0.171664     -0.304911
     9   Atom        1.272516     -0.437542     -0.834975
    10   Atom        0.153876     -0.080659     -0.073217
    11   Atom       -0.033041      0.016515      0.016525
    12   Atom        0.189658     -0.120102     -0.069555
    13   Atom       -0.000902     -0.007005      0.007907
 --------------------------------------------------------
                        XY            XZ            YZ
 --------------------------------------------------------
     1   Atom       -0.219103     -0.187227      0.059382
     2   Atom        0.016321     -0.010962     -0.002797
     3   Atom       -0.001880      0.003731      0.030192
     4   Atom        0.006915     -0.002250     -0.001831
     5   Atom        0.003025     -0.000015     -0.000104
     6   Atom        0.003416     -0.002345     -0.004026
     7   Atom        0.006872     -0.000160     -0.000366
     8   Atom       -0.316937     -0.194449      0.089464
     9   Atom       -0.962747     -0.268368      0.126630
    10   Atom       -0.073024     -0.082014      0.021000
    11   Atom       -0.002667      0.033462     -0.024118
    12   Atom       -0.081501     -0.141623      0.026808
    13   Atom       -0.008672      0.000863     -0.014426
 --------------------------------------------------------


 ---------------------------------------------------------------------------------
              Anisotropic Spin Dipole Couplings in Principal Axis System
 ---------------------------------------------------------------------------------

       Atom             a.u.   MegaHertz   Gauss  10(-4) cm-1        Axes

              Baa    -0.2784   -37.356   -13.330   -12.461  0.0738 -0.4978  0.8642
     1 C(13)  Bbb    -0.2745   -36.832   -13.142   -12.286  0.3685  0.8188  0.4402
              Bcc     0.5529    74.187    26.472    24.746  0.9267 -0.2860 -0.2439
 
              Baa    -0.0342   -18.240    -6.508    -6.084  0.2660 -0.0283  0.9636
     2 H(1)   Bbb    -0.0008    -0.420    -0.150    -0.140  0.7987 -0.5532 -0.2367
              Bcc     0.0350    18.660     6.658     6.224  0.5397  0.8326 -0.1245
 
              Baa    -0.0341   -18.175    -6.485    -6.062  0.1071  0.8521 -0.5123
     3 H(1)   Bbb    -0.0010    -0.543    -0.194    -0.181  0.9923 -0.1237  0.0018
              Bcc     0.0351    18.717     6.679     6.243  0.0619  0.5086  0.8588
 
              Baa    -0.0063    -0.843    -0.301    -0.281  0.7937 -0.3923  0.4649
     4 C(13)  Bbb    -0.0040    -0.538    -0.192    -0.179 -0.3126  0.3926  0.8650
              Bcc     0.0103     1.381     0.493     0.461  0.5219  0.8318 -0.1889
 
              Baa    -0.0051    -2.705    -0.965    -0.902 -0.0050  0.0097  0.9999
     5 H(1)   Bbb    -0.0030    -1.615    -0.576    -0.539  0.9589 -0.2836  0.0075
              Bcc     0.0081     4.320     1.541     1.441  0.2837  0.9589 -0.0079
 
              Baa    -0.0045    -2.394    -0.854    -0.798  0.1573  0.4276  0.8902
     6 H(1)   Bbb    -0.0027    -1.426    -0.509    -0.476  0.8658 -0.4933  0.0839
              Bcc     0.0072     3.820     1.363     1.274  0.4750  0.7575 -0.4478
 
              Baa    -0.0049    -2.600    -0.928    -0.867 -0.6312  0.7330  0.2535
     7 H(1)   Bbb    -0.0042    -2.229    -0.795    -0.744  0.1867 -0.1737  0.9669
              Bcc     0.0091     4.830     1.723     1.611  0.7528  0.6577 -0.0272
 
              Baa    -0.3542    25.630     9.146     8.549  0.1341 -0.2385  0.9618
     8 O(17)  Bbb    -0.2993    21.656     7.727     7.224  0.4082  0.8977  0.1657
              Bcc     0.6535   -47.286   -16.873   -15.773  0.9030 -0.3704 -0.2178
 
              Baa    -0.8751    63.325    22.596    21.123  0.2318  0.7042 -0.6711
     9 O(17)  Bbb    -0.8642    62.529    22.312    20.858  0.3540  0.5815  0.7325
              Bcc     1.7393  -125.854   -44.908   -41.981  0.9061 -0.4074 -0.1145
 
              Baa    -0.1029   -54.926   -19.599   -18.321  0.3816  0.7729  0.5069
    10 H(1)   Bbb    -0.0979   -52.256   -18.646   -17.431  0.0960 -0.5786  0.8099
              Bcc     0.2009   107.182    38.245    35.752  0.9193 -0.2604 -0.2950
 
              Baa    -0.0511    -6.852    -2.445    -2.286  0.8676 -0.1364 -0.4782
    11 C(13)  Bbb     0.0016     0.218     0.078     0.073  0.3779  0.8059  0.4557
              Bcc     0.0494     6.634     2.367     2.213  0.3232 -0.5761  0.7507
 
              Baa    -0.1442   -19.345    -6.903    -6.453  0.3836  0.8142  0.4357
    12 C(13)  Bbb    -0.1265   -16.980    -6.059    -5.664  0.2243 -0.5398  0.8114
              Bcc     0.2707    36.325    12.962    12.117  0.8958 -0.2136 -0.3897
 
              Baa    -0.0186    -9.947    -3.549    -3.318  0.3790  0.8182  0.4323
    13 H(1)   Bbb     0.0004     0.213     0.076     0.071  0.8809 -0.1759 -0.4393
              Bcc     0.0182     9.734     3.473     3.247  0.2834 -0.5473  0.7875
 

 ---------------------------------------------------------------------------------

 1\1\GINC-N185\Scan\UB2PLYPD3-FC\CC-pVTZ\C4H7O2(2)\ROOT\17-Jun-2019\0\\
 # opt=(calcfc,ts,noeigentest,maxcyc=500,modredundant) uB2PLYPD3/cc-pvt
 z scf=maxcyc=500 nosymm\\Title Card Required\\0,2\C,1.3492605025,0.718
 0307321,-0.8752786535\H,1.8798202053,1.6572252074,-0.9915103091\H,1.20
 36739958,0.1769977286,-1.8040748016\C,-1.7908236302,-0.4719440631,0.71
 49571266\H,-1.1425080176,-1.1048476557,0.1100998408\H,-1.9535204308,-0
 .9294041408,1.6879820644\H,-2.7391019085,-0.3073527981,0.2072297534\O,
 -1.1563837436,0.7744195885,0.990171849\O,-0.9851045245,1.4497110687,-0
 .2156949055\H,0.1006310035,1.1404409494,-0.563176924\C,1.71416989,-0.0
 59160668,0.2432402336\C,1.9507934937,-0.7100034292,1.2372027428\H,2.18
 59211644,-1.2771385197,2.1013179832\\Version=ES64L-G16RevB.01\HF=-306.
 3404371,-306.3404412,-306.3403494,-306.3402135,-306.3400816,-306.33998
 07,-306.3399244,-306.3399159,-306.3399346,-306.3399472,-306.3399279,-3
 06.339869,-306.3397829,-306.3396853,-306.3395914,-306.3395088,-306.339
 4411,-306.3393845,-306.3393366,-306.3392955,-306.3392587,-306.3392215,
 -306.3391746,-306.3391158,-306.339047,-306.3389737,-306.3389152,-306.3
 388879,-306.3389034,-306.3389764,-306.3391074,-306.3392959,-306.339525
 8,-306.3397832,-306.3400645,-306.340304,-306.3404372\MP2=-306.718094,-
 306.7179699,-306.7176512,-306.7172328,-306.7168183,-306.7165039,-306.7
 163259,-306.7162708,-306.71629,-306.716322,-306.7163104,-306.7162268,-
 306.7160892,-306.715934,-306.7157889,-306.7156655,-306.7155654,-306.71
 54854,-306.7154239,-306.7153804,-306.7153549,-306.7153406,-306.7153239
 ,-306.7152931,-306.7152449,-306.7151907,-306.7151528,-306.7151529,-306
 .7152117,-306.7153484,-306.7155799,-306.7159299,-306.7164126,-306.7170
 019,-306.7175738,-306.7179637,-306.7180927\PUHF=-306.3493534,-306.3493
 381,-306.3492094,-306.3490277,-306.3488532,-306.3487204,-306.3486435,-
 306.3486209,-306.3486328,-306.3486461,-306.3486374,-306.3485961,-306.3
 485293,-306.3484466,-306.348362,-306.348284,-306.3482195,-306.3481648,
 -306.3481207,-306.3480837,-306.3480513,-306.3480181,-306.3479709,-306.
 347911,-306.347838,-306.3477592,-306.3476957,-306.3476665,-306.3476816
 ,-306.3477599,-306.3479012,-306.3481068,-306.3483627,-306.3486519,-306
 .3489634,-306.3492201,-306.3493536\PMP2-0=-306.7192637,-306.7191353,-3
 06.718809,-306.7183816,-306.7179588,-306.7176385,-306.7174567,-306.717
 3987,-306.7174163,-306.7174477,-306.7174371,-306.7173561,-306.7172216,
 -306.717069,-306.7169256,-306.7168031,-306.7167039,-306.7166243,-306.7
 165637,-306.7165209,-306.7164962,-306.7164825,-306.7164658,-306.716435
 1,-306.7163867,-306.7163323,-306.7162943,-306.7162948,-306.7163541,-30
 6.7164923,-306.716726,-306.7170795,-306.7175674,-306.7181632,-306.7187
 41,-306.7191339,-306.7192624\S2=0.794675,0.794395,0.793899,0.793304,0.
 792774,0.792405,0.792183,0.792035,0.79195,0.791925,0.791987,0.792116,0
 .792271,0.792397,0.792479,0.792523,0.792562,0.792583,0.792631,0.792671
 ,0.792717,0.792761,0.792765,0.792783,0.792785,0.792781,0.792788,0.7928
 29,0.792874,0.792975,0.793123,0.793348,0.793685,0.794107,0.794499,0.79
 4708,0.794678\S2-1=0.747949,0.7479,0.747827,0.747748,0.747685,0.747643
 ,0.747618,0.747593,0.747569,0.747545,0.747533,0.747534,0.747547,0.7475
 62,0.747576,0.747586,0.747597,0.747604,0.747614,0.747619,0.747622,0.74
 7626,0.747625,0.747634,0.747647,0.747663,0.747682,0.747705,0.747723,0.
 747744,0.747768,0.747798,0.747844,0.747902,0.747951,0.747968,0.74795\S
 2A=0.751287,0.751274,0.751251,0.751222,0.751197,0.751179,0.751168,0.75
 1161,0.751156,0.751153,0.751155,0.751159,0.751165,0.75117,0.751173,0.7
 51175,0.751176,0.751177,0.751178,0.75118,0.751182,0.751184,0.751184,0.
 751185,0.751185,0.751186,0.751187,0.75119,0.751193,0.751198,0.751206,0
 .751217,0.751235,0.751256,0.751277,0.751288,0.751288\RMSD=8.476e-09,5.
 271e-09,6.808e-09,5.989e-09,7.761e-09,6.555e-09,8.021e-09,6.195e-09,9.
 537e-09,8.656e-09,7.710e-09,6.816e-09,6.459e-09,8.308e-09,3.757e-09,8.
 719e-09,7.334e-09,6.424e-09,4.279e-09,7.655e-09,6.577e-09,9.125e-09,7.
 762e-09,7.025e-09,6.018e-09,5.089e-09,3.969e-09,9.189e-09,9.636e-09,7.
 664e-09,9.433e-09,4.649e-09,8.285e-09,9.693e-09,7.378e-09,7.851e-09,9.
 968e-09\PG=C01 [X(C4H7O2)]\\@


 IN SO FAR AS QUANTUM MECHANICS IS CORRECT, CHEMICAL 
 QUESTIONS ARE PROBLEMS IN APPLIED MATHEMATICS.

                    -- EYRING, WALTER, & KIMBALL, 1944
 Job cpu time:       7 days 20 hours 45 minutes  7.1 seconds.
 Elapsed time:       0 days  6 hours 47 minutes 38.8 seconds.
 File lengths (MBytes):  RWF=  41755 Int=      0 D2E=      0 Chk=     14 Scr=      1
 Normal termination of Gaussian 16 at Mon Jun 17 16:41:10 2019.
