 Entering Gaussian System, Link 0=g16
 Initial command:
 /ichec/packages/gaussian/16b01/l1.exe "/localscratch/346541/Gau-15503.inp" -scrdir="/localscratch/346541/"
 Entering Link 1 = /ichec/packages/gaussian/16b01/l1.exe PID=     17312.
  
 Copyright (c) 1988-2017, Gaussian, Inc.  All Rights Reserved.
  
 This is part of the Gaussian(R) 16 program.  It is based on
 the Gaussian(R) 09 system (copyright 2009, Gaussian, Inc.),
 the Gaussian(R) 03 system (copyright 2003, Gaussian, Inc.),
 the Gaussian(R) 98 system (copyright 1998, Gaussian, Inc.),
 the Gaussian(R) 94 system (copyright 1995, Gaussian, Inc.),
 the Gaussian 92(TM) system (copyright 1992, Gaussian, Inc.),
 the Gaussian 90(TM) system (copyright 1990, Gaussian, Inc.),
 the Gaussian 88(TM) system (copyright 1988, Gaussian, Inc.),
 the Gaussian 86(TM) system (copyright 1986, Carnegie Mellon
 University), and the Gaussian 82(TM) system (copyright 1983,
 Carnegie Mellon University). Gaussian is a federally registered
 trademark of Gaussian, Inc.
  
 This software contains proprietary and confidential information,
 including trade secrets, belonging to Gaussian, Inc.
  
 This software is provided under written license and may be
 used, copied, transmitted, or stored only in accord with that
 written license.
  
 The following legend is applicable only to US Government
 contracts under FAR:
  
                    RESTRICTED RIGHTS LEGEND
  
 Use, reproduction and disclosure by the US Government is
 subject to restrictions as set forth in subparagraphs (a)
 and (c) of the Commercial Computer Software - Restricted
 Rights clause in FAR 52.227-19.
  
 Gaussian, Inc.
 340 Quinnipiac St., Bldg. 40, Wallingford CT 06492
  
  
 ---------------------------------------------------------------
 Warning -- This program may not be used in any manner that
 competes with the business of Gaussian, Inc. or will provide
 assistance to any competitor of Gaussian, Inc.  The licensee
 of this program is prohibited from giving any competitor of
 Gaussian, Inc. access to this program.  By using this program,
 the user acknowledges that Gaussian, Inc. is engaged in the
 business of creating and licensing software in the field of
 computational chemistry and represents and warrants to the
 licensee that it is not a competitor of Gaussian, Inc. and that
 it will not use this program in any manner prohibited above.
 ---------------------------------------------------------------
  

 Cite this work as:
 Gaussian 16, Revision B.01,
 M. J. Frisch, G. W. Trucks, H. B. Schlegel, G. E. Scuseria, 
 M. A. Robb, J. R. Cheeseman, G. Scalmani, V. Barone, 
 G. A. Petersson, H. Nakatsuji, X. Li, M. Caricato, A. V. Marenich, 
 J. Bloino, B. G. Janesko, R. Gomperts, B. Mennucci, H. P. Hratchian, 
 J. V. Ortiz, A. F. Izmaylov, J. L. Sonnenberg, D. Williams-Young, 
 F. Ding, F. Lipparini, F. Egidi, J. Goings, B. Peng, A. Petrone, 
 T. Henderson, D. Ranasinghe, V. G. Zakrzewski, J. Gao, N. Rega, 
 G. Zheng, W. Liang, M. Hada, M. Ehara, K. Toyota, R. Fukuda, 
 J. Hasegawa, M. Ishida, T. Nakajima, Y. Honda, O. Kitao, H. Nakai, 
 T. Vreven, K. Throssell, J. A. Montgomery, Jr., J. E. Peralta, 
 F. Ogliaro, M. J. Bearpark, J. J. Heyd, E. N. Brothers, K. N. Kudin, 
 V. N. Staroverov, T. A. Keith, R. Kobayashi, J. Normand, 
 K. Raghavachari, A. P. Rendell, J. C. Burant, S. S. Iyengar, 
 J. Tomasi, M. Cossi, J. M. Millam, M. Klene, C. Adamo, R. Cammi, 
 J. W. Ochterski, R. L. Martin, K. Morokuma, O. Farkas, 
 J. B. Foresman, and D. J. Fox, Gaussian, Inc., Wallingford CT, 2016.
 
 ******************************************
 Gaussian 16:  ES64L-G16RevB.01 20-Dec-2017
                11-Jun-2019 
 ******************************************
 %mem=80GB
 %nproc=40
 Will use up to   40 processors via shared memory.
 ----------------------------------------------------------------------
 # opt=(calcfc,ts,noeigentest,maxcyc=500) freq=noraman uB2PLYPD3/cc-pvt
 z
 ----------------------------------------------------------------------
 1/5=1,6=500,10=4,11=1,18=20,38=1/1,3;
 2/9=110,12=2,17=6,18=5,40=1/2;
 3/5=16,6=1,11=2,25=1,30=1,71=2,74=-60,116=2,140=1/1,2,3;
 4//1;
 5/5=2,38=5/2;
 8/6=3,8=1,10=1,19=11,30=-1/1;
 9/15=3,16=-3/6;
 11/6=1,8=1,15=11,17=12,24=-1,27=1,28=-2,29=300,32=6,42=3/1,2,10;
 10/6=2,21=1/2;
 8/6=4,8=1,10=1,19=11,30=-1/11,4;
 10/5=1,20=4/2;
 11/12=2,14=11,16=1,17=2,28=-2,42=3,76=2/2,10,12;
 6/7=2,8=2,9=2,10=2/1;
 7/10=1,12=2,25=1,44=2/1,2,3,16;
 1/5=1,6=500,10=4,11=1,18=20/3(2);
 2/9=110/2;
 99//99;
 2/9=110/2;
 3/5=16,6=1,11=2,25=1,30=1,71=1,74=-60,116=2/1,2,3;
 4/5=5,16=3,69=1/1;
 5/5=2,38=5/2;
 8/6=4,10=1/1;
 9/15=2,16=-3/6;
 10/5=1/2;
 7/12=2/1,2,3,16;
 1/5=1,6=500,11=1,18=20/3(-8);
 2/9=110/2;
 6/7=2,8=2,9=2,10=2/1;
 99/9=10/99;
 -------------------
 Title Card Required
 -------------------
 Symbolic Z-matrix:
 Charge =  0 Multiplicity = 2
 C                     1.29224   1.20697  -0.34313 
 H                     1.71436   1.97103   0.30189 
 H                     1.29155   1.4684   -1.39647 
 C                    -1.63166  -0.90423  -0.56239 
 H                    -0.8433   -0.81945  -1.31235 
 H                    -1.74518  -1.94272  -0.25914 
 H                    -2.56999  -0.51345  -0.95459 
 O                    -1.26479  -0.20011   0.6117 
 O                    -1.14965   1.12525   0.30652 
 H                    -0.01006   1.2435   -0.01024 
 C                     1.66282  -0.12231  -0.03901 
 C                     1.90065  -1.26938   0.24296 
 H                     2.13385  -2.2748    0.49462 
 
 Add virtual bond connecting atoms H10        and O9         Dist= 2.25D+00.
 Add virtual bond connecting atoms H10        and C1         Dist= 2.54D+00.

 GradGradGradGradGradGradGradGradGradGradGradGradGradGradGradGradGradGrad
 Berny optimization.
 Initialization pass.
                           ----------------------------
                           !    Initial Parameters    !
                           ! (Angstroms and Degrees)  !
 --------------------------                            --------------------------
 ! Name  Definition              Value          Derivative Info.                !
 --------------------------------------------------------------------------------
 ! R1    R(1,2)                  1.0854         calculate D2E/DX2 analytically  !
 ! R2    R(1,3)                  1.0853         calculate D2E/DX2 analytically  !
 ! R3    R(1,10)                 1.3447         calculate D2E/DX2 analytically  !
 ! R4    R(1,11)                 1.4131         calculate D2E/DX2 analytically  !
 ! R5    R(4,5)                  1.0914         calculate D2E/DX2 analytically  !
 ! R6    R(4,6)                  1.0878         calculate D2E/DX2 analytically  !
 ! R7    R(4,7)                  1.0895         calculate D2E/DX2 analytically  !
 ! R8    R(4,8)                  1.4173         calculate D2E/DX2 analytically  !
 ! R9    R(8,9)                  1.3649         calculate D2E/DX2 analytically  !
 ! R10   R(9,10)                 1.1887         calculate D2E/DX2 analytically  !
 ! R11   R(11,12)                1.2049         calculate D2E/DX2 analytically  !
 ! R12   R(12,13)                1.0623         calculate D2E/DX2 analytically  !
 ! A1    A(2,1,3)              114.0458         calculate D2E/DX2 analytically  !
 ! A2    A(2,1,10)             102.147          calculate D2E/DX2 analytically  !
 ! A3    A(2,1,11)             115.6145         calculate D2E/DX2 analytically  !
 ! A4    A(3,1,10)             103.4805         calculate D2E/DX2 analytically  !
 ! A5    A(3,1,11)             115.8262         calculate D2E/DX2 analytically  !
 ! A6    A(10,1,11)            103.0772         calculate D2E/DX2 analytically  !
 ! A7    A(5,4,6)              109.9445         calculate D2E/DX2 analytically  !
 ! A8    A(5,4,7)              110.2973         calculate D2E/DX2 analytically  !
 ! A9    A(5,4,8)              110.0998         calculate D2E/DX2 analytically  !
 ! A10   A(6,4,7)              110.6647         calculate D2E/DX2 analytically  !
 ! A11   A(6,4,8)              105.6855         calculate D2E/DX2 analytically  !
 ! A12   A(7,4,8)              110.0559         calculate D2E/DX2 analytically  !
 ! A13   A(4,8,9)              108.6035         calculate D2E/DX2 analytically  !
 ! A14   A(8,9,10)             103.7126         calculate D2E/DX2 analytically  !
 ! A15   L(1,10,9,5,-1)        174.8037         calculate D2E/DX2 analytically  !
 ! A16   L(1,11,12,4,-1)       176.4396         calculate D2E/DX2 analytically  !
 ! A17   L(11,12,13,4,-1)      181.3177         calculate D2E/DX2 analytically  !
 ! A18   L(1,10,9,5,-2)        174.6612         calculate D2E/DX2 analytically  !
 ! A19   L(1,11,12,4,-2)       181.6515         calculate D2E/DX2 analytically  !
 ! A20   L(11,12,13,4,-2)      179.9663         calculate D2E/DX2 analytically  !
 ! D1    D(2,1,9,8)           -124.5455         calculate D2E/DX2 analytically  !
 ! D2    D(3,1,9,8)            115.3092         calculate D2E/DX2 analytically  !
 ! D3    D(11,1,9,8)            -4.8447         calculate D2E/DX2 analytically  !
 ! D4    D(5,4,8,9)             63.3186         calculate D2E/DX2 analytically  !
 ! D5    D(6,4,8,9)           -177.9931         calculate D2E/DX2 analytically  !
 ! D6    D(7,4,8,9)            -58.473          calculate D2E/DX2 analytically  !
 ! D7    D(4,8,9,10)           -90.0748         calculate D2E/DX2 analytically  !
 --------------------------------------------------------------------------------
 Trust Radius=3.00D-01 FncErr=1.00D-07 GrdErr=1.00D-07 EigMax=2.50D+02 EigMin=1.00D-04
 Number of steps in this run=    100 maximum allowed number of steps=    100.
 Search for a saddle point of order  1.
 GradGradGradGradGradGradGradGradGradGradGradGradGradGradGradGradGradGrad

                          Input orientation:                          
 ---------------------------------------------------------------------
 Center     Atomic      Atomic             Coordinates (Angstroms)
 Number     Number       Type             X           Y           Z
 ---------------------------------------------------------------------
      1          6           0        1.292237    1.206972   -0.343133
      2          1           0        1.714359    1.971025    0.301886
      3          1           0        1.291548    1.468398   -1.396471
      4          6           0       -1.631658   -0.904234   -0.562388
      5          1           0       -0.843301   -0.819448   -1.312345
      6          1           0       -1.745178   -1.942723   -0.259136
      7          1           0       -2.569986   -0.513454   -0.954586
      8          8           0       -1.264792   -0.200106    0.611699
      9          8           0       -1.149649    1.125254    0.306516
     10          1           0       -0.010060    1.243501   -0.010244
     11          6           0        1.662821   -0.122308   -0.039010
     12          6           0        1.900650   -1.269378    0.242958
     13          1           0        2.133849   -2.274796    0.494620
 ---------------------------------------------------------------------
                    Distance matrix (angstroms):
                    1          2          3          4          5
     1  C    0.000000
     2  H    1.085363   0.000000
     3  H    1.085295   1.820939   0.000000
     4  C    3.613091   4.495544   3.856191   0.000000
     5  H    3.099399   4.115107   3.130319   1.091389   0.000000
     6  H    4.376474   5.253624   4.706483   1.087800   1.784483
     7  H    4.272061   5.109498   4.362848   1.089490   1.789711
     8  O    3.070826   3.699342   3.653974   1.417345   2.064748
     9  O    2.528147   2.986284   2.996224   2.259679   2.548809
    10  H    1.344666   1.897455   1.914781   2.747218   2.577890
    11  C    1.413085   2.121535   2.123885   3.426211   2.896210
    12  C    2.616482   3.246288   3.248715   3.641306   3.186012
    13  H    3.678702   4.270845   4.277522   4.144243   3.774465
                    6          7          8          9         10
     6  H    0.000000
     7  H    1.790745   0.000000
     8  O    2.006449   2.062757   0.000000
     9  O    3.176019   2.508605   1.364908   0.000000
    10  H    3.636565   3.245288   2.011260   1.188689   0.000000
    11  C    3.869990   4.348325   3.000065   3.096092   2.159813
    12  C    3.741330   4.689576   3.361448   3.878482   3.166936
    13  H    3.965510   5.227675   3.983567   4.730442   4.150861
                   11         12         13
    11  C    0.000000
    12  C    1.204922   0.000000
    13  H    2.267120   1.062347   0.000000
 Stoichiometry    C4H7O2(2)
 Framework group  C1[X(C4H7O2)]
 Deg. of freedom    33
 Full point group                 C1      NOp   1
 Largest Abelian subgroup         C1      NOp   1
 Largest concise Abelian subgroup C1      NOp   1
                         Standard orientation:                         
 ---------------------------------------------------------------------
 Center     Atomic      Atomic             Coordinates (Angstroms)
 Number     Number       Type             X           Y           Z
 ---------------------------------------------------------------------
      1          6           0        1.292237   -1.206972    0.343133
      2          1           0        1.714359   -1.971025   -0.301886
      3          1           0        1.291548   -1.468398    1.396471
      4          6           0       -1.631658    0.904234    0.562388
      5          1           0       -0.843301    0.819448    1.312345
      6          1           0       -1.745178    1.942723    0.259136
      7          1           0       -2.569986    0.513454    0.954586
      8          8           0       -1.264792    0.200106   -0.611699
      9          8           0       -1.149649   -1.125254   -0.306516
     10          1           0       -0.010060   -1.243501    0.010244
     11          6           0        1.662821    0.122308    0.039010
     12          6           0        1.900650    1.269378   -0.242958
     13          1           0        2.133849    2.274796   -0.494620
 ---------------------------------------------------------------------
 Rotational constants (GHZ):           4.8944017           2.3664978           1.8029888
 Standard basis: CC-pVTZ (5D, 7F)
 There are   315 symmetry adapted cartesian basis functions of A   symmetry.
 There are   278 symmetry adapted basis functions of A   symmetry.
   278 basis functions,   431 primitive gaussians,   315 cartesian basis functions
    24 alpha electrons       23 beta electrons
       nuclear repulsion energy       223.8314599482 Hartrees.
 NAtoms=   13 NActive=   13 NUniq=   13 SFac= 1.00D+00 NAtFMM=   60 NAOKFM=F Big=F
 Integral buffers will be    131072 words long.
 Raffenetti 2 integral format.
 Two-electron integral symmetry is turned on.
 Nuclear repulsion after empirical dispersion term =      223.8249001936 Hartrees.
 One-electron integrals computed using PRISM.
 NBasis=   278 RedAO= T EigKep=  5.03D-05  NBF=   278
 NBsUse=   278 1.00D-06 EigRej= -1.00D+00 NBFU=   278
 ExpMin= 1.03D-01 ExpMax= 1.53D+04 ExpMxC= 5.22D+02 IAcc=3 IRadAn=         5 AccDes= 0.00D+00
 Harris functional with IExCor=  419 and IRadAn=       5 diagonalized for initial guess.
 HarFok:  IExCor=  419 AccDes= 0.00D+00 IRadAn=         5 IDoV= 1 UseB2=F ITyADJ=14
 ICtDFT=  3500011 ScaDFX=  1.000000  1.000000  1.000000  1.000000
 FoFCou: FMM=F IPFlag=           0 FMFlag=      100000 FMFlg1=           0
         NFxFlg=           0 DoJE=T BraDBF=F KetDBF=T FulRan=T
         wScrn=  0.000000 ICntrl=       500 IOpCl=  0 I1Cent=   200000004 NGrid=           0
         NMat0=    1 NMatS0=      1 NMatT0=    0 NMatD0=    1 NMtDS0=    0 NMtDT0=    0
 Petite list used in FoFCou.
 Initial guess <Sx>= 0.0000 <Sy>= 0.0000 <Sz>= 0.5000 <S**2>= 0.7500 S= 0.5000
 Requested convergence on RMS density matrix=1.00D-08 within 128 cycles.
 Requested convergence on MAX density matrix=1.00D-06.
 Requested convergence on             energy=1.00D-06.
 No special actions if energy rises.
 Integral accuracy reduced to 1.0D-05 until final iterations.
 Initial convergence to 1.0D-05 achieved.  Increase integral accuracy.
 SCF Done:  E(UB2PLYPD3) =  -306.340452848     A.U. after   22 cycles
            NFock= 22  Conv=0.65D-08     -V/T= 2.0041
 <Sx>= 0.0000 <Sy>= 0.0000 <Sz>= 0.5000 <S**2>= 0.7908 S= 0.5202
 <L.S>=  0.00000000000    
 Annihilation of the first spin contaminant:
 S**2 before annihilation     0.7908,   after     0.7511
 DoSCS=T DFT=T ScalE2(SS,OS)=  0.270000  0.270000
 ExpMin= 1.03D-01 ExpMax= 1.53D+04 ExpMxC= 5.22D+02 IAcc=3 IRadAn=         5 AccDes= 0.00D+00
 HarFok:  IExCor=  205 AccDes= 0.00D+00 IRadAn=         5 IDoV=-2 UseB2=F ITyADJ=14
 ICtDFT= 12500011 ScaDFX=  1.000000  1.000000  1.000000  1.000000
 Range of M.O.s used for correlation:     7   278
 NBasis=   278 NAE=    24 NBE=    23 NFC=     6 NFV=     0
 NROrb=    272 NOA=    18 NOB=    17 NVA=   254 NVB=   255

 **** Warning!!: The largest alpha MO coefficient is  0.46806365D+02


 **** Warning!!: The largest beta MO coefficient is  0.46267046D+02

 DoSCS=T DFT=T ScalE2(SS,OS)=  0.270000  0.270000
 Disk-based method using ON**2 memory for 18 occupieds at a time.
 Permanent disk used for amplitudes=    52814601 words.
 Estimated scratch disk usage=  1006368252 words.
 Actual    scratch disk usage=   972687868 words.
 JobTyp=2 Pass  1:  I=   7 to  24 NPSUse= 40 ParTrn=T ParDer=T DoDerP=T.
 (rs|ai) integrals will be sorted in core.
 Actual    scratch disk usage=   972687868 words.
 JobTyp=3 Pass  1:  I=   7 to  23 NPSUse= 40 ParTrn=T ParDer=T DoDerP=T.
 (rs|ai) integrals will be sorted in core.
 Spin components of T(2) and E(2):
     alpha-alpha T2 =       0.6824257279D-01 E2=     -0.4710776812D-01
     alpha-beta  T2 =       0.4048681129D+00 E2=     -0.2828636209D+00
     beta-beta   T2 =       0.7830640882D-01 E2=     -0.4707058426D-01
 (S**2,0)=  0.79084D+00           (S**2,1)=  0.74688D+00
 Scaling Projection term by:   0.270000
 E(PUHF)=      -0.30634902520D+03        E(PMP2)=      -0.30671858332D+03
 E2(B2PLYPD3) =    -0.3770419733D+00 E(B2PLYPD3) =    -0.30671749482144D+03
 G2DrvN: will do    14 centers at a time, making    1 passes.
 Calling FoFCou, ICntrl=  3107 FMM=F I1Cent=   0 AccDes= 0.00D+00.
 End of G2Drv F.D. properties file   721 does not exist.
 End of G2Drv F.D. properties file   722 does not exist.
 End of G2Drv F.D. properties file   788 does not exist.
          IDoAtm=1111111111111
          Differentiating once with respect to electric field.
                with respect to dipole field.
          Differentiating once with respect to nuclear coordinates.
 Keep R1 and R2 ints in memory in canonical form, NReq=1549740530.
          There are    42 degrees of freedom in the 1st order CPHF.  IDoFFX=6 NUNeed=    42.
     39 vectors produced by pass  0 Test12= 2.85D-14 2.38D-09 XBig12= 9.21D+01 7.23D+00.
 AX will form    39 AO Fock derivatives at one time.
     39 vectors produced by pass  1 Test12= 2.85D-14 2.38D-09 XBig12= 1.37D+01 5.01D-01.
     39 vectors produced by pass  2 Test12= 2.85D-14 2.38D-09 XBig12= 7.33D-01 1.36D-01.
     39 vectors produced by pass  3 Test12= 2.85D-14 2.38D-09 XBig12= 1.35D-02 1.78D-02.
     39 vectors produced by pass  4 Test12= 2.85D-14 2.38D-09 XBig12= 1.76D-04 1.37D-03.
     39 vectors produced by pass  5 Test12= 2.85D-14 2.38D-09 XBig12= 1.92D-06 1.47D-04.
     39 vectors produced by pass  6 Test12= 2.85D-14 2.38D-09 XBig12= 1.65D-08 1.30D-05.
     20 vectors produced by pass  7 Test12= 2.85D-14 2.38D-09 XBig12= 1.01D-10 1.18D-06.
      4 vectors produced by pass  8 Test12= 2.85D-14 2.38D-09 XBig12= 7.47D-13 7.92D-08.
      2 vectors produced by pass  9 Test12= 2.85D-14 2.38D-09 XBig12= 6.87D-15 9.16D-09.
 InvSVY:  IOpt=1 It=  1 EMax= 1.07D-14
 Solved reduced A of dimension   299 with    42 vectors.
 End of Minotr F.D. properties file   721 does not exist.
 End of Minotr F.D. properties file   722 does not exist.
 End of Minotr F.D. properties file   788 does not exist.
 MDV= 10737418240.
 DoSCS=T DFT=T ScalE2(SS,OS)=  0.270000  0.270000
 Form MO integral derivatives with frozen-active canonical formalism.
 Discarding MO integrals.
 Reordered first order wavefunction length =    212909022
 In DefCFB: NBatch=  1 ICI= 24 ICA=255 LFMax= 85
            Large arrays: LIAPS=  4189699080 LIARS=   944622000 words.
 In DefCFB: NBatch=  1 ICI= 24 ICA=255 LFMax= 85
            Large arrays: LIAPS=  4189699080 LIARS=   944622000 words.
 Semi-Direct transformation.
 ModeAB=           4 MOrb=            24 LenV=   10735061947
 LASXX=    243620670 LTotXX=   243620670 LenRXX=   491663946
 LTotAB=   248043276 MaxLAS=   321316848 LenRXY=           0
 NonZer=   735284616 LenScr=  1107252224 LnRSAI=   321316848
 LnScr1=   483865600 LExtra=           0 Total=   2404098618
 MaxDsk=          -1 SrtSym=           T ITran=            4
 JobTyp=1 Pass  1:  I=   1 to  24.
 (rs|ai) integrals will be sorted in core.
 ModeAB=           4 MOrb=            23 LenV=   10735061947
 LASXX=    234045631 LTotXX=   234045631 LenRXX=   432921916
 LTotAB=   198876285 MaxLAS=   307928646 LenRXY=           0
 NonZer=   666967547 LenScr=  1004375040 LnRSAI=   307928646
 LnScr1=   463705088 LExtra=           0 Total=   2208930690
 MaxDsk=          -1 SrtSym=           T ITran=            4
 JobTyp=2 Pass  1:  I=   1 to  23.
 (rs|ai) integrals will be sorted in core.
 SymMOI:  orbitals are not symmetric.
 DoSCS=T DFT=T ScalE2(SS,OS)=  0.270000  0.270000
 Spin components of T(2) and E(2):
     alpha-alpha T2 =       0.6824257279D-01 E2=     -0.4710776812D-01
     alpha-beta  T2 =       0.4048681129D+00 E2=     -0.2828636209D+00
     beta-beta   T2 =       0.7830640882D-01 E2=     -0.4707058426D-01
 E2(B2PLYPD3) =    -0.3770419733D+00 E(B2PLYPD3) =    -0.30671749482144D+03
 (S**2,0)=  0.79084D+00           (S**2,1)=  0.74688D+00
 Scaling Projection term by:   0.270000
 E(PUHF)=      -0.30634902520D+03        E(PMP2)=      -0.30671858332D+03
          IDoAtm=1111111111111
          Differentiating once with respect to electric field.
                with respect to dipole field.
          Differentiating once with respect to nuclear coordinates.
 Keep R1 and R2 ints in memory in canonical form, NReq=1549877081.
          There are     1 degrees of freedom in the 1st order CPHF.  IDoFFX=0 NUNeed=     1.
 LinEq1:  Iter=  0 NonCon=     1 RMS=1.13D-03 Max=6.11D-02 NDo=     1
 AX will form     1 AO Fock derivatives at one time.
 LinEq1:  Iter=  1 NonCon=     1 RMS=4.22D-04 Max=1.00D-02 NDo=     1
 LinEq1:  Iter=  2 NonCon=     1 RMS=2.92D-04 Max=9.49D-03 NDo=     1
 LinEq1:  Iter=  3 NonCon=     1 RMS=1.86D-04 Max=7.84D-03 NDo=     1
 LinEq1:  Iter=  4 NonCon=     1 RMS=9.92D-05 Max=4.27D-03 NDo=     1
 LinEq1:  Iter=  5 NonCon=     1 RMS=7.58D-05 Max=2.82D-03 NDo=     1
 LinEq1:  Iter=  6 NonCon=     1 RMS=3.43D-05 Max=1.05D-03 NDo=     1
 LinEq1:  Iter=  7 NonCon=     1 RMS=9.31D-06 Max=1.60D-04 NDo=     1
 LinEq1:  Iter=  8 NonCon=     1 RMS=5.68D-06 Max=2.19D-04 NDo=     1
 LinEq1:  Iter=  9 NonCon=     1 RMS=3.53D-06 Max=8.37D-05 NDo=     1
 LinEq1:  Iter= 10 NonCon=     1 RMS=2.04D-06 Max=5.09D-05 NDo=     1
 LinEq1:  Iter= 11 NonCon=     1 RMS=9.61D-07 Max=2.27D-05 NDo=     1
 LinEq1:  Iter= 12 NonCon=     1 RMS=3.32D-07 Max=8.49D-06 NDo=     1
 LinEq1:  Iter= 13 NonCon=     1 RMS=1.09D-07 Max=2.31D-06 NDo=     1
 LinEq1:  Iter= 14 NonCon=     1 RMS=4.04D-08 Max=7.94D-07 NDo=     1
 LinEq1:  Iter= 15 NonCon=     1 RMS=1.67D-08 Max=5.44D-07 NDo=     1
 LinEq1:  Iter= 16 NonCon=     1 RMS=7.17D-09 Max=2.83D-07 NDo=     1
 LinEq1:  Iter= 17 NonCon=     1 RMS=2.80D-09 Max=1.22D-07 NDo=     1
 LinEq1:  Iter= 18 NonCon=     1 RMS=9.14D-10 Max=4.07D-08 NDo=     1
 LinEq1:  Iter= 19 NonCon=     1 RMS=2.96D-10 Max=1.03D-08 NDo=     1
 LinEq1:  Iter= 20 NonCon=     1 RMS=7.95D-11 Max=2.10D-09 NDo=     1
 LinEq1:  Iter= 21 NonCon=     0 RMS=2.26D-11 Max=4.30D-10 NDo=     1
 Linear equations converged to 1.000D-10 1.000D-09 after    21 iterations.
 End of Minotr F.D. properties file   721 does not exist.
 End of Minotr F.D. properties file   722 does not exist.
 End of Minotr F.D. properties file   788 does not exist.
 Symmetrizing basis deriv contribution to polar:
 IMax=3 JMax=2 DiffMx= 0.00D+00
 G2DrvN: will do    14 centers at a time, making    1 passes.
 Calling FoFCou, ICntrl=  3107 FMM=F I1Cent=   0 AccDes= 0.00D+00.
 End of G2Drv F.D. properties file   721 does not exist.
 End of G2Drv F.D. properties file   722 does not exist.
 End of G2Drv F.D. properties file   788 does not exist.
 DoSCS=T DFT=T ScalE2(SS,OS)=  0.270000  0.270000
 R2 and R3 integrals will be kept in memory, NReq=  2492879760.
 DD1Dir will call FoFMem   1 times, MxPair=      1634
 NAB=   552 NAA=   276 NBB=   253.
 Discarding MO integrals.

 **********************************************************************

            Population analysis using the SCF Density.

 **********************************************************************

 Orbital symmetries:
 Alpha Orbitals:
       Occupied  (A) (A) (A) (A) (A) (A) (A) (A) (A) (A) (A) (A)
                 (A) (A) (A) (A) (A) (A) (A) (A) (A) (A) (A) (A)
       Virtual   (A) (A) (A) (A) (A) (A) (A) (A) (A) (A) (A) (A)
                 (A) (A) (A) (A) (A) (A) (A) (A) (A) (A) (A) (A)
                 (A) (A) (A) (A) (A) (A) (A) (A) (A) (A) (A) (A)
                 (A) (A) (A) (A) (A) (A) (A) (A) (A) (A) (A) (A)
                 (A) (A) (A) (A) (A) (A) (A) (A) (A) (A) (A) (A)
                 (A) (A) (A) (A) (A) (A) (A) (A) (A) (A) (A) (A)
                 (A) (A) (A) (A) (A) (A) (A) (A) (A) (A) (A) (A)
                 (A) (A) (A) (A) (A) (A) (A) (A) (A) (A) (A) (A)
                 (A) (A) (A) (A) (A) (A) (A) (A) (A) (A) (A) (A)
                 (A) (A) (A) (A) (A) (A) (A) (A) (A) (A) (A) (A)
                 (A) (A) (A) (A) (A) (A) (A) (A) (A) (A) (A) (A)
                 (A) (A) (A) (A) (A) (A) (A) (A) (A) (A) (A) (A)
                 (A) (A) (A) (A) (A) (A) (A) (A) (A) (A) (A) (A)
                 (A) (A) (A) (A) (A) (A) (A) (A) (A) (A) (A) (A)
                 (A) (A) (A) (A) (A) (A) (A) (A) (A) (A) (A) (A)
                 (A) (A) (A) (A) (A) (A) (A) (A) (A) (A) (A) (A)
                 (A) (A) (A) (A) (A) (A) (A) (A) (A) (A) (A) (A)
                 (A) (A) (A) (A) (A) (A) (A) (A) (A) (A) (A) (A)
                 (A) (A) (A) (A) (A) (A) (A) (A) (A) (A) (A) (A)
                 (A) (A) (A) (A) (A) (A) (A) (A) (A) (A) (A) (A)
                 (A) (A) (A) (A) (A) (A) (A) (A) (A) (A) (A) (A)
                 (A) (A)
 Beta  Orbitals:
       Occupied  (A) (A) (A) (A) (A) (A) (A) (A) (A) (A) (A) (A)
                 (A) (A) (A) (A) (A) (A) (A) (A) (A) (A) (A)
       Virtual   (A) (A) (A) (A) (A) (A) (A) (A) (A) (A) (A) (A)
                 (A) (A) (A) (A) (A) (A) (A) (A) (A) (A) (A) (A)
                 (A) (A) (A) (A) (A) (A) (A) (A) (A) (A) (A) (A)
                 (A) (A) (A) (A) (A) (A) (A) (A) (A) (A) (A) (A)
                 (A) (A) (A) (A) (A) (A) (A) (A) (A) (A) (A) (A)
                 (A) (A) (A) (A) (A) (A) (A) (A) (A) (A) (A) (A)
                 (A) (A) (A) (A) (A) (A) (A) (A) (A) (A) (A) (A)
                 (A) (A) (A) (A) (A) (A) (A) (A) (A) (A) (A) (A)
                 (A) (A) (A) (A) (A) (A) (A) (A) (A) (A) (A) (A)
                 (A) (A) (A) (A) (A) (A) (A) (A) (A) (A) (A) (A)
                 (A) (A) (A) (A) (A) (A) (A) (A) (A) (A) (A) (A)
                 (A) (A) (A) (A) (A) (A) (A) (A) (A) (A) (A) (A)
                 (A) (A) (A) (A) (A) (A) (A) (A) (A) (A) (A) (A)
                 (A) (A) (A) (A) (A) (A) (A) (A) (A) (A) (A) (A)
                 (A) (A) (A) (A) (A) (A) (A) (A) (A) (A) (A) (A)
                 (A) (A) (A) (A) (A) (A) (A) (A) (A) (A) (A) (A)
                 (A) (A) (A) (A) (A) (A) (A) (A) (A) (A) (A) (A)
                 (A) (A) (A) (A) (A) (A) (A) (A) (A) (A) (A) (A)
                 (A) (A) (A) (A) (A) (A) (A) (A) (A) (A) (A) (A)
                 (A) (A) (A) (A) (A) (A) (A) (A) (A) (A) (A) (A)
                 (A) (A) (A) (A) (A) (A) (A) (A) (A) (A) (A) (A)
                 (A) (A) (A)
 The electronic state is 2-A.
 Alpha  occ. eigenvalues --  -19.79822 -19.79287 -10.66188 -10.65524 -10.63250
 Alpha  occ. eigenvalues --  -10.62645  -1.30525  -1.02157  -0.91741  -0.82950
 Alpha  occ. eigenvalues --   -0.77945  -0.63250  -0.61952  -0.57181  -0.55926
 Alpha  occ. eigenvalues --   -0.54825  -0.52597  -0.50444  -0.45003  -0.41638
 Alpha  occ. eigenvalues --   -0.36825  -0.36171  -0.33730  -0.29066
 Alpha virt. eigenvalues --    0.07954   0.08701   0.09622   0.10602   0.11823
 Alpha virt. eigenvalues --    0.14379   0.14874   0.15461   0.17248   0.20924
 Alpha virt. eigenvalues --    0.23159   0.25809   0.28289   0.29833   0.30721
 Alpha virt. eigenvalues --    0.33703   0.34946   0.36733   0.39858   0.43152
 Alpha virt. eigenvalues --    0.44274   0.45402   0.46413   0.47988   0.50694
 Alpha virt. eigenvalues --    0.51346   0.52092   0.52985   0.53401   0.54135
 Alpha virt. eigenvalues --    0.57449   0.58885   0.60280   0.61466   0.64851
 Alpha virt. eigenvalues --    0.66376   0.66943   0.68326   0.71552   0.74183
 Alpha virt. eigenvalues --    0.77833   0.79225   0.84099   0.85960   0.87633
 Alpha virt. eigenvalues --    0.90756   0.92353   0.93867   0.95362   0.95752
 Alpha virt. eigenvalues --    0.97276   0.98883   0.99289   1.00483   1.04221
 Alpha virt. eigenvalues --    1.07715   1.09622   1.11981   1.12191   1.14174
 Alpha virt. eigenvalues --    1.17173   1.18569   1.19252   1.20637   1.26469
 Alpha virt. eigenvalues --    1.28923   1.31083   1.32828   1.34338   1.36402
 Alpha virt. eigenvalues --    1.38409   1.39541   1.40543   1.42199   1.46953
 Alpha virt. eigenvalues --    1.48469   1.51744   1.52429   1.55879   1.60395
 Alpha virt. eigenvalues --    1.64048   1.65967   1.68683   1.71898   1.79308
 Alpha virt. eigenvalues --    1.86197   1.90985   2.02560   2.04364   2.10901
 Alpha virt. eigenvalues --    2.14326   2.18688   2.21728   2.22684   2.26557
 Alpha virt. eigenvalues --    2.29727   2.34482   2.37011   2.37411   2.41923
 Alpha virt. eigenvalues --    2.44409   2.50282   2.53263   2.54993   2.55209
 Alpha virt. eigenvalues --    2.58025   2.63118   2.64057   2.68609   2.69106
 Alpha virt. eigenvalues --    2.71264   2.73882   2.79706   2.82073   2.84551
 Alpha virt. eigenvalues --    2.87851   2.88770   2.90307   2.91474   2.92312
 Alpha virt. eigenvalues --    2.92723   2.94690   2.97101   3.00232   3.02585
 Alpha virt. eigenvalues --    3.03979   3.05827   3.06699   3.07607   3.08015
 Alpha virt. eigenvalues --    3.09467   3.10143   3.12173   3.13417   3.14356
 Alpha virt. eigenvalues --    3.16417   3.19877   3.20398   3.20724   3.23124
 Alpha virt. eigenvalues --    3.28071   3.30449   3.31196   3.36470   3.39835
 Alpha virt. eigenvalues --    3.41256   3.43264   3.43749   3.45092   3.45934
 Alpha virt. eigenvalues --    3.50264   3.51372   3.52487   3.53999   3.57845
 Alpha virt. eigenvalues --    3.61630   3.63475   3.66086   3.69383   3.74655
 Alpha virt. eigenvalues --    3.76387   3.80288   3.83309   3.88193   3.90284
 Alpha virt. eigenvalues --    3.91580   3.92984   3.94055   3.95720   3.96869
 Alpha virt. eigenvalues --    3.98485   4.00654   4.04015   4.07904   4.09823
 Alpha virt. eigenvalues --    4.10764   4.13646   4.14200   4.18213   4.18635
 Alpha virt. eigenvalues --    4.19600   4.22373   4.28368   4.32308   4.34939
 Alpha virt. eigenvalues --    4.36997   4.39747   4.40910   4.42813   4.46670
 Alpha virt. eigenvalues --    4.49398   4.53451   4.65347   4.66973   4.70928
 Alpha virt. eigenvalues --    4.76800   4.80966   4.84548   4.92767   4.94096
 Alpha virt. eigenvalues --    4.99107   5.00429   5.03313   5.06735   5.06973
 Alpha virt. eigenvalues --    5.15665   5.19124   5.24043   5.27786   5.28174
 Alpha virt. eigenvalues --    5.31495   5.31734   5.34992   5.37289   5.38433
 Alpha virt. eigenvalues --    5.41182   5.47295   5.49319   5.68444   5.69763
 Alpha virt. eigenvalues --    5.72231   5.78614   5.82579   5.89734   5.92596
 Alpha virt. eigenvalues --    5.95162   5.98727   6.03325   6.05604   6.08747
 Alpha virt. eigenvalues --    6.11326   6.24991   6.28660   6.34295   6.43290
 Alpha virt. eigenvalues --    6.44744   6.69010   6.73452   6.76368   6.82717
 Alpha virt. eigenvalues --    6.97071   7.06011   7.07598   7.13399   7.43614
 Alpha virt. eigenvalues --    7.45669   7.62899   7.72214   8.45305   9.88147
 Alpha virt. eigenvalues --   10.95212  13.46783  13.75642  16.97480
  Beta  occ. eigenvalues --  -19.79439 -19.77639 -10.66207 -10.64514 -10.63632
  Beta  occ. eigenvalues --  -10.62061  -1.28333  -0.99117  -0.90671  -0.80610
  Beta  occ. eigenvalues --   -0.77272  -0.62146  -0.58883  -0.55540  -0.55508
  Beta  occ. eigenvalues --   -0.54312  -0.52092  -0.47560  -0.44119  -0.37111
  Beta  occ. eigenvalues --   -0.35541  -0.33444  -0.31626
  Beta virt. eigenvalues --   -0.06833   0.08147   0.08787   0.10018   0.10800
  Beta virt. eigenvalues --    0.12896   0.14923   0.15161   0.15518   0.17435
  Beta virt. eigenvalues --    0.21781   0.23484   0.26050   0.29208   0.30603
  Beta virt. eigenvalues --    0.30885   0.34662   0.35675   0.37230   0.40554
  Beta virt. eigenvalues --    0.43464   0.44806   0.45566   0.47372   0.48200
  Beta virt. eigenvalues --    0.51094   0.51377   0.52602   0.53327   0.53917
  Beta virt. eigenvalues --    0.55451   0.57898   0.59257   0.60615   0.61655
  Beta virt. eigenvalues --    0.65165   0.66910   0.67501   0.68734   0.72210
  Beta virt. eigenvalues --    0.74708   0.78284   0.79625   0.84997   0.86716
  Beta virt. eigenvalues --    0.87802   0.91009   0.92534   0.94043   0.95570
  Beta virt. eigenvalues --    0.95999   0.97561   0.99459   0.99825   1.00805
  Beta virt. eigenvalues --    1.04487   1.08013   1.10121   1.12275   1.12876
  Beta virt. eigenvalues --    1.14244   1.17293   1.18850   1.19406   1.21137
  Beta virt. eigenvalues --    1.26702   1.29253   1.31655   1.33294   1.34878
  Beta virt. eigenvalues --    1.36738   1.38733   1.39600   1.40728   1.42482
  Beta virt. eigenvalues --    1.47435   1.48862   1.52189   1.53136   1.56584
  Beta virt. eigenvalues --    1.60628   1.64276   1.66681   1.69305   1.73012
  Beta virt. eigenvalues --    1.79608   1.88158   1.91938   2.03259   2.05303
  Beta virt. eigenvalues --    2.11274   2.14710   2.20269   2.22554   2.23406
  Beta virt. eigenvalues --    2.26934   2.30793   2.34730   2.37458   2.37539
  Beta virt. eigenvalues --    2.42492   2.44960   2.50444   2.54012   2.55090
  Beta virt. eigenvalues --    2.55780   2.58526   2.63414   2.64516   2.69049
  Beta virt. eigenvalues --    2.69458   2.72116   2.74333   2.80040   2.82734
  Beta virt. eigenvalues --    2.84669   2.88717   2.89425   2.90772   2.91853
  Beta virt. eigenvalues --    2.92489   2.93310   2.95368   2.97575   3.00741
  Beta virt. eigenvalues --    3.02953   3.04243   3.06286   3.07639   3.08275
  Beta virt. eigenvalues --    3.08382   3.10107   3.10460   3.13009   3.13562
  Beta virt. eigenvalues --    3.14534   3.16611   3.20144   3.20605   3.21147
  Beta virt. eigenvalues --    3.23168   3.28870   3.30504   3.31599   3.37813
  Beta virt. eigenvalues --    3.40544   3.41705   3.43477   3.44141   3.45246
  Beta virt. eigenvalues --    3.46416   3.50383   3.51820   3.52621   3.54072
  Beta virt. eigenvalues --    3.58068   3.61863   3.63995   3.66703   3.69676
  Beta virt. eigenvalues --    3.75005   3.76796   3.80482   3.83598   3.88120
  Beta virt. eigenvalues --    3.90310   3.91791   3.93015   3.94218   3.95925
  Beta virt. eigenvalues --    3.96966   3.98195   4.01046   4.03886   4.07957
  Beta virt. eigenvalues --    4.10057   4.10896   4.13690   4.14126   4.18270
  Beta virt. eigenvalues --    4.18852   4.19707   4.22288   4.28464   4.32575
  Beta virt. eigenvalues --    4.35060   4.37147   4.40162   4.42006   4.43237
  Beta virt. eigenvalues --    4.47171   4.49656   4.54342   4.66485   4.67524
  Beta virt. eigenvalues --    4.71265   4.77432   4.81208   4.84780   4.93512
  Beta virt. eigenvalues --    4.94337   4.99398   5.00747   5.04156   5.07074
  Beta virt. eigenvalues --    5.07219   5.16513   5.19531   5.24961   5.28231
  Beta virt. eigenvalues --    5.28772   5.32012   5.32152   5.35299   5.37574
  Beta virt. eigenvalues --    5.39115   5.41282   5.47696   5.49726   5.68780
  Beta virt. eigenvalues --    5.70618   5.73370   5.78961   5.83559   5.90048
  Beta virt. eigenvalues --    5.92927   5.95337   5.99075   6.03947   6.07376
  Beta virt. eigenvalues --    6.09466   6.11479   6.26863   6.29445   6.34497
  Beta virt. eigenvalues --    6.44609   6.45557   6.69897   6.76874   6.78671
  Beta virt. eigenvalues --    6.84139   6.99113   7.07272   7.09730   7.15420
  Beta virt. eigenvalues --    7.45598   7.45886   7.64444   7.73298   8.45459
  Beta virt. eigenvalues --    9.89317  10.96210  13.46783  13.76447  16.97689
          Condensed to atoms (all electrons):
               1          2          3          4          5          6
     1  C    5.040631   0.416328   0.414695  -0.003628   0.000151   0.000473
     2  H    0.416328   0.526364  -0.028124  -0.000002   0.000044   0.000019
     3  H    0.414695  -0.028124   0.545366   0.000622  -0.001455  -0.000044
     4  C   -0.003628  -0.000002   0.000622   4.623543   0.396703   0.396423
     5  H    0.000151   0.000044  -0.001455   0.396703   0.662482  -0.034953
     6  H    0.000473   0.000019  -0.000044   0.396423  -0.034953   0.586170
     7  H   -0.000877   0.000013   0.000055   0.414706  -0.052338  -0.026085
     8  O    0.000103   0.000442   0.000425   0.292207  -0.049251  -0.025419
     9  O   -0.070142  -0.000292  -0.000549  -0.045524  -0.002673   0.006751
    10  H    0.213287  -0.007773  -0.007195   0.001812   0.005125  -0.000964
    11  C    0.402710  -0.042364  -0.051233  -0.000046  -0.000795   0.000211
    12  C   -0.087110  -0.004373  -0.004432  -0.004890  -0.001614   0.000569
    13  H    0.000734  -0.000092  -0.000081  -0.000107   0.000077   0.000053
               7          8          9         10         11         12
     1  C   -0.000877   0.000103  -0.070142   0.213287   0.402710  -0.087110
     2  H    0.000013   0.000442  -0.000292  -0.007773  -0.042364  -0.004373
     3  H    0.000055   0.000425  -0.000549  -0.007195  -0.051233  -0.004432
     4  C    0.414706   0.292207  -0.045524   0.001812  -0.000046  -0.004890
     5  H   -0.052338  -0.049251  -0.002673   0.005125  -0.000795  -0.001614
     6  H   -0.026085  -0.025419   0.006751  -0.000964   0.000211   0.000569
     7  H    0.594551  -0.036693   0.004917   0.000448   0.000789   0.000423
     8  O   -0.036693   7.923926   0.070875  -0.027825   0.001639   0.004445
     9  O    0.004917   0.070875   8.066770   0.187517  -0.011178   0.000786
    10  H    0.000448  -0.027825   0.187517   0.425213  -0.001160   0.000703
    11  C    0.000789   0.001639  -0.011178  -0.001160   4.981433   0.786751
    12  C    0.000423   0.004445   0.000786   0.000703   0.786751   5.055445
    13  H   -0.000005  -0.000066   0.000032   0.000019  -0.059987   0.414178
              13
     1  C    0.000734
     2  H   -0.000092
     3  H   -0.000081
     4  C   -0.000107
     5  H    0.000077
     6  H    0.000053
     7  H   -0.000005
     8  O   -0.000066
     9  O    0.000032
    10  H    0.000019
    11  C   -0.059987
    12  C    0.414178
    13  H    0.474263
          Atomic-Atomic Spin Densities.
               1          2          3          4          5          6
     1  C    0.541234   0.004745   0.004296   0.001250  -0.005107   0.000037
     2  H    0.004745  -0.024133   0.002849  -0.000045   0.000161  -0.000003
     3  H    0.004296   0.002849  -0.024979  -0.000208   0.000927  -0.000001
     4  C    0.001250  -0.000045  -0.000208  -0.010706   0.003663   0.000805
     5  H   -0.005107   0.000161   0.000927   0.003663   0.003723  -0.000463
     6  H    0.000037  -0.000003  -0.000001   0.000805  -0.000463  -0.001654
     7  H    0.001027  -0.000024  -0.000108  -0.001147  -0.001097   0.000417
     8  O    0.012950  -0.000429  -0.000581   0.000086  -0.002003   0.000289
     9  O   -0.066485   0.002180   0.002669  -0.002041   0.004578  -0.000199
    10  H    0.034924   0.002105   0.002304   0.001754  -0.004035   0.000111
    11  C   -0.016211  -0.000861  -0.000480  -0.001682   0.002940  -0.000155
    12  C   -0.015109  -0.001052  -0.001101  -0.000684   0.001135  -0.000059
    13  H   -0.000162   0.000003   0.000005   0.000035  -0.000059   0.000004
               7          8          9         10         11         12
     1  C    0.001027   0.012950  -0.066485   0.034924  -0.016211  -0.015109
     2  H   -0.000024  -0.000429   0.002180   0.002105  -0.000861  -0.001052
     3  H   -0.000108  -0.000581   0.002669   0.002304  -0.000480  -0.001101
     4  C   -0.001147   0.000086  -0.002041   0.001754  -0.001682  -0.000684
     5  H   -0.001097  -0.002003   0.004578  -0.004035   0.002940   0.001135
     6  H    0.000417   0.000289  -0.000199   0.000111  -0.000155  -0.000059
     7  H    0.003526  -0.000708   0.000048   0.001343  -0.000375  -0.000164
     8  O   -0.000708   0.126964  -0.060194   0.009982  -0.004357  -0.003657
     9  O    0.000048  -0.060194   0.577508  -0.033335   0.005986   0.000674
    10  H    0.001343   0.009982  -0.033335  -0.108450   0.006540  -0.000502
    11  C   -0.000375  -0.004357   0.005986   0.006540  -0.211885   0.005343
    12  C   -0.000164  -0.003657   0.000674  -0.000502   0.005343   0.351114
    13  H    0.000005   0.000052  -0.000023  -0.000028  -0.001020   0.003145
              13
     1  C   -0.000162
     2  H    0.000003
     3  H    0.000005
     4  C    0.000035
     5  H   -0.000059
     6  H    0.000004
     7  H    0.000005
     8  O    0.000052
     9  O   -0.000023
    10  H   -0.000028
    11  C   -0.001020
    12  C    0.003145
    13  H   -0.013091
 Mulliken charges and spin densities:
               1          2
     1  C   -0.327355   0.497389
     2  H    0.139811  -0.014502
     3  H    0.131951  -0.014408
     4  C   -0.071820  -0.008919
     5  H    0.078497   0.004362
     6  H    0.096794  -0.000870
     7  H    0.100095   0.002743
     8  O   -0.154806   0.078394
     9  O   -0.207289   0.431366
    10  H    0.210793  -0.087288
    11  C   -0.006770  -0.216215
    12  C   -0.160882   0.339083
    13  H    0.170982  -0.011133
 Sum of Mulliken charges =  -0.00000   1.00000
 Mulliken charges and spin densities with hydrogens summed into heavy atoms:
               1          2
     1  C   -0.055593   0.468479
     4  C    0.203565  -0.002684
     8  O   -0.154806   0.078394
     9  O    0.003504   0.344077
    11  C   -0.006770  -0.216215
    12  C    0.010100   0.327949
 APT charges:
               1
     1  C    0.416506
     2  H   -0.012797
     3  H   -0.026622
     4  C    0.419612
     5  H   -0.026729
     6  H    0.000635
     7  H   -0.032254
     8  O   -0.325217
     9  O    0.121390
    10  H   -0.364419
    11  C   -0.163066
    12  C   -0.221052
    13  H    0.214013
 Sum of APT charges =  -0.00000
 APT charges with hydrogens summed into heavy atoms:
               1
     1  C    0.377087
     4  C    0.361264
     8  O   -0.325217
     9  O   -0.243029
    11  C   -0.163066
    12  C   -0.007039
 Electronic spatial extent (au):  <R**2>=            686.2715
 Charge=             -0.0000 electrons
 Dipole moment (field-independent basis, Debye):
    X=              0.8542    Y=              1.0515    Z=              1.6317  Tot=              2.1208
 Quadrupole moment (field-independent basis, Debye-Ang):
   XX=            -37.0063   YY=            -31.0549   ZZ=            -37.6088
   XY=             -2.7249   XZ=             -2.5773   YZ=             -1.2209
 Traceless Quadrupole moment (field-independent basis, Debye-Ang):
   XX=             -1.7830   YY=              4.1685   ZZ=             -2.3855
   XY=             -2.7249   XZ=             -2.5773   YZ=             -1.2209
 Octapole moment (field-independent basis, Debye-Ang**2):
  XXX=            -21.9754  YYY=              6.1447  ZZZ=             -0.2088  XYY=              6.9475
  XXY=              5.2847  XXZ=              0.5079  XZZ=             -4.0543  YZZ=             -2.9101
  YYZ=             -3.3663  XYZ=             -2.9005
 Hexadecapole moment (field-independent basis, Debye-Ang**3):
 XXXX=           -566.5452 YYYY=           -236.0642 ZZZZ=            -88.1634 XXXY=              1.7368
 XXXZ=             -6.8582 YYYX=             11.2639 YYYZ=             -7.4125 ZZZX=              5.3488
 ZZZY=             -1.2246 XXYY=           -114.8867 XXZZ=           -110.1327 YYZZ=            -59.2808
 XXYZ=             -3.6425 YYXZ=             -6.6653 ZZXY=             -2.6120
 N-N= 2.238249001936D+02 E-N=-1.165400543144D+03  KE= 3.050974477941D+02
  Exact polarizability:  93.667   1.733  73.498   0.880  -4.444  43.159
 Approx polarizability:  79.856   7.877  91.531   3.175  -7.774  52.136
                          Isotropic Fermi Contact Couplings
        Atom                 a.u.       MegaHertz       Gauss      10(-4) cm-1
     1  C(13)              0.07795      87.62808      31.26788      29.22958
     2  H(1)              -0.00318     -14.22157      -5.07461      -4.74380
     3  H(1)              -0.00330     -14.75354      -5.26443      -4.92125
     4  C(13)             -0.00593      -6.67185      -2.38068      -2.22549
     5  H(1)               0.00327      14.61736       5.21584       4.87583
     6  H(1)              -0.00012      -0.53055      -0.18931      -0.17697
     7  H(1)               0.00145       6.49187       2.31646       2.16545
     8  O(17)              0.02567     -15.55875      -5.55175      -5.18984
     9  O(17)              0.01969     -11.93602      -4.25907      -3.98143
    10  H(1)              -0.02409    -107.67396     -38.42075     -35.91617
    11  C(13)             -0.01554     -17.46746      -6.23282      -5.82652
    12  C(13)              0.00129       1.44475       0.51552       0.48192
    13  H(1)              -0.00317     -14.16922      -5.05593      -4.72634
 --------------------------------------------------------
       Center         ----  Spin Dipole Couplings  ----
                      3XX-RR        3YY-RR        3ZZ-RR
 --------------------------------------------------------
     1   Atom        0.478664     -0.262717     -0.215948
     2   Atom        0.005112      0.000472     -0.005584
     3   Atom       -0.000757     -0.028394      0.029150
     4   Atom       -0.004147      0.003188      0.000959
     5   Atom       -0.003246      0.000889      0.002357
     6   Atom       -0.001705      0.005272     -0.003567
     7   Atom        0.000480     -0.000730      0.000250
     8   Atom        0.681222     -0.382769     -0.298453
     9   Atom        1.628815     -0.872964     -0.755851
    10   Atom        0.175263     -0.094233     -0.081030
    11   Atom       -0.032805      0.036184     -0.003378
    12   Atom        0.210010     -0.111773     -0.098237
    13   Atom        0.000683      0.013452     -0.014136
 --------------------------------------------------------
                        XY            XZ            YZ
 --------------------------------------------------------
     1   Atom        0.002995      0.180387      0.001712
     2   Atom       -0.014853     -0.004422      0.028371
     3   Atom        0.000501      0.003125     -0.015271
     4   Atom       -0.005223     -0.002728      0.006949
     5   Atom       -0.000625     -0.000738      0.006952
     6   Atom       -0.003228     -0.001108      0.003768
     7   Atom       -0.004677     -0.005583      0.004193
     8   Atom        0.046688      0.268626      0.036838
     9   Atom        0.329799      0.600367      0.077972
    10   Atom       -0.022653      0.076435     -0.007513
    11   Atom        0.025706     -0.015731     -0.003610
    12   Atom       -0.050836      0.108318     -0.020525
    13   Atom        0.005916      0.002911     -0.008139
 --------------------------------------------------------


 ---------------------------------------------------------------------------------
              Anisotropic Spin Dipole Couplings in Principal Axis System
 ---------------------------------------------------------------------------------

       Atom             a.u.   MegaHertz   Gauss  10(-4) cm-1        Axes

              Baa    -0.2630   -35.296   -12.595   -11.774  0.0673  0.9539 -0.2924
     1 C(13)  Bbb    -0.2597   -34.849   -12.435   -11.624 -0.2275  0.3000  0.9264
              Bcc     0.5227    70.145    25.030    23.398  0.9714  0.0042  0.2372
 
              Baa    -0.0324   -17.277    -6.165    -5.763 -0.1908 -0.6896  0.6986
     2 H(1)   Bbb    -0.0008    -0.408    -0.146    -0.136  0.8697  0.2113  0.4461
              Bcc     0.0331    17.685     6.310     5.899 -0.4552  0.6927  0.5594
 
              Baa    -0.0322   -17.204    -6.139    -5.739 -0.0396  0.9692  0.2431
     3 H(1)   Bbb    -0.0010    -0.511    -0.182    -0.170  0.9956  0.0590 -0.0734
              Bcc     0.0332    17.715     6.321     5.909  0.0855 -0.2391  0.9672
 
              Baa    -0.0070    -0.943    -0.336    -0.315  0.8080  0.5524 -0.2047
     4 C(13)  Bbb    -0.0042    -0.569    -0.203    -0.190  0.4730 -0.4012  0.7844
              Bcc     0.0113     1.512     0.540     0.504 -0.3512  0.7306  0.5855
 
              Baa    -0.0054    -2.864    -1.022    -0.955 -0.0140  0.7426 -0.6696
     5 H(1)   Bbb    -0.0033    -1.773    -0.633    -0.591  0.9966  0.0644  0.0506
              Bcc     0.0087     4.638     1.655     1.547 -0.0807  0.6667  0.7410
 
              Baa    -0.0050    -2.645    -0.944    -0.882 -0.0340 -0.3549  0.9343
     6 H(1)   Bbb    -0.0029    -1.557    -0.555    -0.519  0.9414  0.3025  0.1492
              Bcc     0.0079     4.202     1.499     1.402 -0.3355  0.8846  0.3238
 
              Baa    -0.0053    -2.824    -1.008    -0.942  0.7703  0.2510  0.5862
     7 H(1)   Bbb    -0.0044    -2.362    -0.843    -0.788  0.1531  0.8196 -0.5521
              Bcc     0.0097     5.186     1.851     1.730  0.6190 -0.5150 -0.5930
 
              Baa    -0.4020    29.091    10.381     9.704  0.1037  0.8212 -0.5611
     8 O(17)  Bbb    -0.3506    25.370     9.053     8.462 -0.2313  0.5686  0.7895
              Bcc     0.7526   -54.461   -19.433   -18.166  0.9673  0.0479  0.2489
 
              Baa    -0.9157    66.260    23.643    22.102 -0.1265  0.9919 -0.0086
     9 O(17)  Bbb    -0.8985    65.012    23.198    21.686 -0.2285 -0.0207  0.9733
              Bcc     1.8142  -131.272   -46.841   -43.788  0.9653  0.1251  0.2293
 
              Baa    -0.1023   -54.601   -19.483   -18.213 -0.2457  0.1937  0.9498
    10 H(1)   Bbb    -0.0959   -51.186   -18.264   -17.074  0.1285  0.9777 -0.1662
              Bcc     0.1983   105.787    37.747    35.287  0.9608 -0.0812  0.2651
 
              Baa    -0.0459    -6.158    -2.197    -2.054  0.9100 -0.2712  0.3137
    11 C(13)  Bbb    -0.0003    -0.040    -0.014    -0.013 -0.2432  0.2637  0.9334
              Bcc     0.0462     6.198     2.212     2.068  0.3359  0.9257 -0.1740
 
              Baa    -0.1338   -17.950    -6.405    -5.988 -0.2488  0.2879  0.9248
    12 C(13)  Bbb    -0.1187   -15.928    -5.684    -5.313  0.2235  0.9461 -0.2344
              Bcc     0.2525    33.879    12.089    11.301  0.9424 -0.1484  0.2998
 
              Baa    -0.0175    -9.313    -3.323    -3.106 -0.2432  0.2903  0.9255
    13 H(1)   Bbb     0.0002     0.133     0.047     0.044  0.9238 -0.2215  0.3123
              Bcc     0.0172     9.180     3.276     3.062  0.2956  0.9310 -0.2143
 

 ---------------------------------------------------------------------------------

 Calling FoFJK, ICntrl=  10100127 FMM=F ISym2X=0 I1Cent= 0 IOpClX= 1 NMat=1 NMatS=1 NMatT=0.
 ***** Axes restored to original set *****
 -------------------------------------------------------------------
 Center     Atomic                   Forces (Hartrees/Bohr)
 Number     Number              X              Y              Z
 -------------------------------------------------------------------
      1        6          -0.003149547    0.000183402    0.000900352
      2        1           0.000476996   -0.000051743   -0.000659861
      3        1           0.000676071    0.000254484    0.000397155
      4        6          -0.001547547   -0.002571928   -0.005707813
      5        1          -0.001408155   -0.000588838    0.000482706
      6        1           0.000039142    0.000537495    0.000035732
      7        1           0.000528818   -0.000491124   -0.000020096
      8        8          -0.000915793   -0.011232934    0.008172730
      9        8          -0.002648403    0.012622566   -0.001671046
     10        1           0.007024409    0.000830133   -0.001916534
     11        6          -0.001587212    0.012387440   -0.003030103
     12        6           0.002857635   -0.013733092    0.003489951
     13        1          -0.000346414    0.001854140   -0.000473172
 -------------------------------------------------------------------
 Cartesian Forces:  Max     0.013733092 RMS     0.004672888
 FormGI is forming the generalized inverse of G from B-inverse, IUseBI=4.

 GradGradGradGradGradGradGradGradGradGradGradGradGradGradGradGradGradGrad
 Berny optimization.
 Internal  Forces:  Max     0.014896075 RMS     0.003718666
 Search for a saddle point.
 Step number   1 out of a maximum of  100
 All quantities printed in internal units (Hartrees-Bohrs-Radians)
 Swapping is turned off.
 Second derivative matrix not updated -- analytic derivatives used.
 ITU=  0
     Eigenvalues ---   -0.08407   0.00306   0.00608   0.02031   0.03544
     Eigenvalues ---    0.03950   0.04810   0.06286   0.06447   0.07368
     Eigenvalues ---    0.08235   0.08423   0.08479   0.09819   0.10309
     Eigenvalues ---    0.11763   0.13164   0.14228   0.16897   0.18202
     Eigenvalues ---    0.18506   0.24675   0.29991   0.33023   0.33638
     Eigenvalues ---    0.34715   0.34940   0.35043   0.35989   0.39534
     Eigenvalues ---    0.41087   0.44991   1.06933
 Eigenvectors required to have negative eigenvalues:
                          R10       R3        R9        A2        A4
   1                    0.69263  -0.64636  -0.15581   0.12913   0.11715
                          R4        A1        A6        A5        A3
   1                    0.09285  -0.08811   0.07558  -0.07361  -0.07013
 RFO step:  Lambda0=1.284760923D-04 Lambda=-1.23720422D-03.
 Linear search not attempted -- option 19 set.
 Iteration  1 RMS(Cart)=  0.06291758 RMS(Int)=  0.00071629
 Iteration  2 RMS(Cart)=  0.00159786 RMS(Int)=  0.00004333
 Iteration  3 RMS(Cart)=  0.00000135 RMS(Int)=  0.00004333
 Iteration  4 RMS(Cart)=  0.00000000 RMS(Int)=  0.00004333
 Variable       Old X    -DE/DX   Delta X   Delta X   Delta X     New X
                                 (Linear)    (Quad)   (Total)
    R1        2.05104  -0.00024   0.00000  -0.00086  -0.00086   2.05018
    R2        2.05091  -0.00032   0.00000  -0.00114  -0.00114   2.04977
    R3        2.54105  -0.00122   0.00000   0.02094   0.02094   2.56199
    R4        2.67034  -0.00024   0.00000  -0.00599  -0.00599   2.66435
    R5        2.06243  -0.00141   0.00000  -0.00376  -0.00376   2.05867
    R6        2.05564  -0.00051   0.00000  -0.00071  -0.00071   2.05493
    R7        2.05884  -0.00062   0.00000  -0.00245  -0.00245   2.05639
    R8        2.67839   0.00646   0.00000   0.01484   0.01484   2.69323
    R9        2.57930   0.01490   0.00000   0.04841   0.04841   2.62771
   R10        2.24630   0.00624   0.00000  -0.01671  -0.01671   2.22958
   R11        2.27697   0.01251   0.00000   0.01210   0.01210   2.28907
   R12        2.00754  -0.00194   0.00000  -0.00444  -0.00444   2.00310
    A1        1.99047  -0.00102   0.00000  -0.00161  -0.00174   1.98874
    A2        1.78280   0.00071   0.00000  -0.00426  -0.00430   1.77851
    A3        2.01785  -0.00107   0.00000   0.00431   0.00435   2.02220
    A4        1.80608   0.00077   0.00000  -0.00424  -0.00426   1.80181
    A5        2.02155  -0.00059   0.00000   0.00386   0.00392   2.02547
    A6        1.79904   0.00219   0.00000  -0.00066  -0.00063   1.79841
    A7        1.91889  -0.00031   0.00000   0.00017   0.00018   1.91907
    A8        1.92505  -0.00045   0.00000   0.00063   0.00061   1.92566
    A9        1.92160   0.00123   0.00000   0.00681   0.00680   1.92841
   A10        1.93146  -0.00023   0.00000  -0.00218  -0.00218   1.92928
   A11        1.84456  -0.00062   0.00000  -0.00865  -0.00865   1.83591
   A12        1.92084   0.00040   0.00000   0.00297   0.00295   1.92379
   A13        1.89549   0.00160   0.00000  -0.00724  -0.00724   1.88825
   A14        1.81013   0.00601   0.00000   0.00417   0.00417   1.81429
   A15        3.05090   0.00340   0.00000   0.02554   0.02556   3.07646
   A16        3.07945   0.00030   0.00000  -0.00308  -0.00308   3.07638
   A17        3.16459   0.00016   0.00000   0.00417   0.00417   3.16876
   A18        3.04841   0.00165   0.00000   0.03063   0.03065   3.07906
   A19        3.17042   0.00013   0.00000  -0.00018  -0.00018   3.17024
   A20        3.14100  -0.00005   0.00000  -0.00135  -0.00135   3.13965
    D1       -2.17373  -0.00075   0.00000   0.01364   0.01378  -2.15995
    D2        2.01253   0.00040   0.00000   0.02777   0.02761   2.04013
    D3       -0.08456  -0.00073   0.00000   0.02045   0.02047  -0.06409
    D4        1.10512   0.00025   0.00000   0.01986   0.01989   1.12500
    D5       -3.10657   0.00018   0.00000   0.01867   0.01866  -3.08790
    D6       -1.02055  -0.00025   0.00000   0.01265   0.01264  -1.00791
    D7       -1.57210  -0.00261   0.00000  -0.04152  -0.04152  -1.61362
         Item               Value     Threshold  Converged?
 Maximum Force            0.014896     0.000450     NO 
 RMS     Force            0.003719     0.000300     NO 
 Maximum Displacement     0.190959     0.001800     NO 
 RMS     Displacement     0.063857     0.001200     NO 
 Predicted change in Energy=-5.591397D-04
 GradGradGradGradGradGradGradGradGradGradGradGradGradGradGradGradGradGrad

                          Input orientation:                          
 ---------------------------------------------------------------------
 Center     Atomic      Atomic             Coordinates (Angstroms)
 Number     Number       Type             X           Y           Z
 ---------------------------------------------------------------------
      1          6           0        1.323106    1.216711   -0.329110
      2          1           0        1.714971    1.983701    0.330580
      3          1           0        1.331365    1.492101   -1.378226
      4          6           0       -1.689419   -0.918422   -0.568162
      5          1           0       -0.904318   -0.884310   -1.322643
      6          1           0       -1.846229   -1.943807   -0.241846
      7          1           0       -2.612122   -0.498180   -0.963358
      8          8           0       -1.287615   -0.211384    0.602239
      9          8           0       -1.136925    1.130098    0.268661
     10          1           0        0.004014    1.225980   -0.016116
     11          6           0        1.711035   -0.106070   -0.033099
     12          6           0        1.962512   -1.258261    0.243530
     13          1           0        2.210464   -2.259453    0.487918
 ---------------------------------------------------------------------
                    Distance matrix (angstroms):
                    1          2          3          4          5
     1  C    0.000000
     2  H    1.084906   0.000000
     3  H    1.084690   1.819022   0.000000
     4  C    3.700168   4.562886   3.948665   0.000000
     5  H    3.219133   4.221293   3.263234   1.089399   0.000000
     6  H    4.476737   5.332461   4.816007   1.087422   1.782653
     7  H    4.339256   5.153421   4.436713   1.088193   1.787394
     8  O    3.118129   3.729305   3.699074   1.425197   2.074830
     9  O    2.533097   2.977546   2.989270   2.280780   2.577635
    10  H    1.355748   1.903080   1.920422   2.787639   2.642992
    11  C    1.409915   2.121183   2.123126   3.536848   3.018054
    12  C    2.619589   3.252564   3.254678   3.756453   3.288077
    13  H    3.679491   4.274882   4.281292   4.257083   3.856296
                    6          7          8          9         10
     6  H    0.000000
     7  H    1.788018   0.000000
     8  O    2.006445   2.070668   0.000000
     9  O    3.195720   2.519002   1.390523   0.000000
    10  H    3.677215   3.273250   2.028961   1.179844   0.000000
    11  C    4.009362   4.439461   3.067025   3.119302   2.165310
    12  C    3.900266   4.791824   3.433359   3.912979   3.174049
    13  H    4.133878   5.335318   4.055147   4.768872   4.155805
                   11         12         13
    11  C    0.000000
    12  C    1.211326   0.000000
    13  H    2.271111   1.059995   0.000000
 Stoichiometry    C4H7O2(2)
 Framework group  C1[X(C4H7O2)]
 Deg. of freedom    33
 Full point group                 C1      NOp   1
 Largest Abelian subgroup         C1      NOp   1
 Largest concise Abelian subgroup C1      NOp   1
                         Standard orientation:                         
 ---------------------------------------------------------------------
 Center     Atomic      Atomic             Coordinates (Angstroms)
 Number     Number       Type             X           Y           Z
 ---------------------------------------------------------------------
      1          6           0        1.333249   -1.193206    0.333857
      2          1           0        1.744751   -1.951719   -0.323673
      3          1           0        1.335913   -1.470985    1.382371
      4          6           0       -1.717822    0.889189    0.547966
      5          1           0       -0.939722    0.866739    1.310099
      6          1           0       -1.889052    1.912522    0.222457
      7          1           0       -2.636998    0.452167    0.933054
      8          8           0       -1.292385    0.192042   -0.620013
      9          8           0       -1.121900   -1.147463   -0.288025
     10          1           0        0.017660   -1.224400    0.007807
     11          6           0        1.701229    0.136776    0.044720
     12          6           0        1.935533    1.293798   -0.226776
     13          1           0        2.168595    2.299704   -0.466412
 ---------------------------------------------------------------------
 Rotational constants (GHZ):           4.8821520           2.2710126           1.7397416
 Standard basis: CC-pVTZ (5D, 7F)
 There are   315 symmetry adapted cartesian basis functions of A   symmetry.
 There are   278 symmetry adapted basis functions of A   symmetry.
   278 basis functions,   431 primitive gaussians,   315 cartesian basis functions
    24 alpha electrons       23 beta electrons
       nuclear repulsion energy       221.6112446869 Hartrees.
 NAtoms=   13 NActive=   13 NUniq=   13 SFac= 1.00D+00 NAtFMM=   60 NAOKFM=F Big=F
 Integral buffers will be    131072 words long.
 Raffenetti 2 integral format.
 Two-electron integral symmetry is turned on.
 Nuclear repulsion after empirical dispersion term =      221.6048287753 Hartrees.
 One-electron integrals computed using PRISM.
 NBasis=   278 RedAO= T EigKep=  5.22D-05  NBF=   278
 NBsUse=   278 1.00D-06 EigRej= -1.00D+00 NBFU=   278
 Initial guess from the checkpoint file:  "/localscratch/346541/Gau-17312.chk"
 B after Tr=    -0.000000    0.000000   -0.000000
         Rot=    0.999967    0.000240    0.002982   -0.007606 Ang=   0.94 deg.
 Initial guess <Sx>= 0.0000 <Sy>= 0.0000 <Sz>= 0.5000 <S**2>= 0.7910 S= 0.5203
 ExpMin= 1.03D-01 ExpMax= 1.53D+04 ExpMxC= 5.22D+02 IAcc=3 IRadAn=         5 AccDes= 0.00D+00
 Harris functional with IExCor=  419 and IRadAn=       5 diagonalized for initial guess.
 HarFok:  IExCor=  419 AccDes= 0.00D+00 IRadAn=         5 IDoV= 1 UseB2=F ITyADJ=14
 ICtDFT=  3500011 ScaDFX=  1.000000  1.000000  1.000000  1.000000
 FoFCou: FMM=F IPFlag=           0 FMFlag=      100000 FMFlg1=           0
         NFxFlg=           0 DoJE=T BraDBF=F KetDBF=T FulRan=T
         wScrn=  0.000000 ICntrl=       500 IOpCl=  0 I1Cent=   200000004 NGrid=           0
         NMat0=    1 NMatS0=      1 NMatT0=    0 NMatD0=    1 NMtDS0=    0 NMtDT0=    0
 Petite list used in FoFCou.
 Requested convergence on RMS density matrix=1.00D-08 within 128 cycles.
 Requested convergence on MAX density matrix=1.00D-06.
 Requested convergence on             energy=1.00D-06.
 No special actions if energy rises.
 Integral accuracy reduced to 1.0D-05 until final iterations.
 Initial convergence to 1.0D-05 achieved.  Increase integral accuracy.
 SCF Done:  E(UB2PLYPD3) =  -306.340453756     A.U. after   18 cycles
            NFock= 18  Conv=0.32D-08     -V/T= 2.0043
 <Sx>= 0.0000 <Sy>= 0.0000 <Sz>= 0.5000 <S**2>= 0.7947 S= 0.5221
 <L.S>=  0.00000000000    
 Annihilation of the first spin contaminant:
 S**2 before annihilation     0.7947,   after     0.7513
 DoSCS=T DFT=T ScalE2(SS,OS)=  0.270000  0.270000
 ExpMin= 1.03D-01 ExpMax= 1.53D+04 ExpMxC= 5.22D+02 IAcc=3 IRadAn=         5 AccDes= 0.00D+00
 HarFok:  IExCor=  205 AccDes= 0.00D+00 IRadAn=         5 IDoV=-2 UseB2=F ITyADJ=14
 ICtDFT= 12500011 ScaDFX=  1.000000  1.000000  1.000000  1.000000
 Range of M.O.s used for correlation:     7   278
 NBasis=   278 NAE=    24 NBE=    23 NFC=     6 NFV=     0
 NROrb=    272 NOA=    18 NOB=    17 NVA=   254 NVB=   255

 **** Warning!!: The largest alpha MO coefficient is  0.46088248D+02


 **** Warning!!: The largest beta MO coefficient is  0.45796077D+02

 DoSCS=T DFT=T ScalE2(SS,OS)=  0.270000  0.270000
 Disk-based method using ON**2 memory for 18 occupieds at a time.
 Estimated scratch disk usage=  1036385824 words.
 Actual    scratch disk usage=   949284896 words.
 JobTyp=2 Pass  1:  I=   7 to  24 NPSUse= 40 ParTrn=T ParDer=T DoDerP=T.
 (rs|ai) integrals will be sorted in core.
 Actual    scratch disk usage=   949284896 words.
 JobTyp=3 Pass  1:  I=   7 to  23 NPSUse= 40 ParTrn=T ParDer=T DoDerP=T.
 (rs|ai) integrals will be sorted in core.
 Spin components of T(2) and E(2):
     alpha-alpha T2 =       0.6901586725D-01 E2=     -0.4725475870D-01
     alpha-beta  T2 =       0.4084878244D+00 E2=     -0.2834862016D+00
     beta-beta   T2 =       0.7819034978D-01 E2=     -0.4689205576D-01
 (S**2,0)=  0.79468D+00           (S**2,1)=  0.74795D+00
 Scaling Projection term by:   0.270000
 E(PUHF)=      -0.30634936345D+03        E(PMP2)=      -0.30671925564D+03
 E2(B2PLYPD3) =    -0.3776330160D+00 E(B2PLYPD3) =    -0.30671808677249D+03
          IDoAtm=1111111111111
          Differentiating once with respect to electric field.
                with respect to dipole field.
          Differentiating once with respect to nuclear coordinates.
 Keep R1 and R2 ints in memory in canonical form, NReq=1549877081.
          There are     1 degrees of freedom in the 1st order CPHF.  IDoFFX=0 NUNeed=     1.
 LinEq1:  Iter=  0 NonCon=     1 RMS=1.17D-03 Max=6.10D-02 NDo=     1
 AX will form     1 AO Fock derivatives at one time.
 LinEq1:  Iter=  1 NonCon=     1 RMS=4.30D-04 Max=9.53D-03 NDo=     1
 LinEq1:  Iter=  2 NonCon=     1 RMS=2.90D-04 Max=8.02D-03 NDo=     1
 LinEq1:  Iter=  3 NonCon=     1 RMS=1.89D-04 Max=7.90D-03 NDo=     1
 LinEq1:  Iter=  4 NonCon=     1 RMS=1.06D-04 Max=4.71D-03 NDo=     1
 LinEq1:  Iter=  5 NonCon=     1 RMS=8.00D-05 Max=2.81D-03 NDo=     1
 LinEq1:  Iter=  6 NonCon=     1 RMS=3.48D-05 Max=1.00D-03 NDo=     1
 LinEq1:  Iter=  7 NonCon=     1 RMS=8.83D-06 Max=2.60D-04 NDo=     1
 LinEq1:  Iter=  8 NonCon=     1 RMS=3.99D-06 Max=8.82D-05 NDo=     1
 LinEq1:  Iter=  9 NonCon=     1 RMS=2.61D-06 Max=8.37D-05 NDo=     1
 LinEq1:  Iter= 10 NonCon=     1 RMS=1.76D-06 Max=6.40D-05 NDo=     1
 LinEq1:  Iter= 11 NonCon=     1 RMS=9.80D-07 Max=1.87D-05 NDo=     1
 LinEq1:  Iter= 12 NonCon=     1 RMS=3.52D-07 Max=8.17D-06 NDo=     1
 LinEq1:  Iter= 13 NonCon=     1 RMS=1.15D-07 Max=1.79D-06 NDo=     1
 LinEq1:  Iter= 14 NonCon=     1 RMS=4.41D-08 Max=8.08D-07 NDo=     1
 LinEq1:  Iter= 15 NonCon=     1 RMS=1.85D-08 Max=4.38D-07 NDo=     1
 LinEq1:  Iter= 16 NonCon=     1 RMS=7.72D-09 Max=2.49D-07 NDo=     1
 LinEq1:  Iter= 17 NonCon=     1 RMS=2.97D-09 Max=9.74D-08 NDo=     1
 LinEq1:  Iter= 18 NonCon=     1 RMS=9.00D-10 Max=3.38D-08 NDo=     1
 LinEq1:  Iter= 19 NonCon=     1 RMS=2.80D-10 Max=9.60D-09 NDo=     1
 LinEq1:  Iter= 20 NonCon=     1 RMS=7.68D-11 Max=2.53D-09 NDo=     1
 LinEq1:  Iter= 21 NonCon=     0 RMS=2.32D-11 Max=6.90D-10 NDo=     1
 Linear equations converged to 1.000D-10 1.000D-09 after    21 iterations.
 End of Minotr F.D. properties file   721 does not exist.
 End of Minotr F.D. properties file   722 does not exist.
 End of Minotr F.D. properties file   788 does not exist.
 Calling FoFJK, ICntrl=  10002127 FMM=F ISym2X=0 I1Cent= 0 IOpClX= 1 NMat=1 NMatS=1 NMatT=0.
 ***** Axes restored to original set *****
 -------------------------------------------------------------------
 Center     Atomic                   Forces (Hartrees/Bohr)
 Number     Number              X              Y              Z
 -------------------------------------------------------------------
      1        6           0.000077515    0.000026567   -0.000028668
      2        1           0.000015184   -0.000013162    0.000003815
      3        1           0.000009123    0.000014613    0.000002109
      4        6          -0.000138036   -0.000106478   -0.000153336
      5        1          -0.000053572   -0.000017880    0.000021755
      6        1          -0.000005988    0.000007987    0.000001552
      7        1          -0.000003438    0.000016775    0.000005810
      8        8          -0.000059265   -0.001108297    0.000382541
      9        8          -0.000086238    0.001222664   -0.000282554
     10        1           0.000088664   -0.000092157    0.000015271
     11        6           0.000065774    0.000278717   -0.000036966
     12        6           0.000084983   -0.000220199    0.000066711
     13        1           0.000005293   -0.000009151    0.000001960
 -------------------------------------------------------------------
 Cartesian Forces:  Max     0.001222664 RMS     0.000285856

 GradGradGradGradGradGradGradGradGradGradGradGradGradGradGradGradGradGrad
 Berny optimization.
 FormGI is forming the generalized inverse of G from B-inverse, IUseBI=4.
 Internal  Forces:  Max     0.001257388 RMS     0.000275172
 Search for a saddle point.
 Step number   2 out of a maximum of  100
 All quantities printed in internal units (Hartrees-Bohrs-Radians)
 Swapping is turned off.
 Update second derivatives using D2CorX and points    1    2
 ITU=  0  0
     Eigenvalues ---   -0.08380   0.00372   0.00752   0.02052   0.03544
     Eigenvalues ---    0.03956   0.04801   0.06247   0.06409   0.07333
     Eigenvalues ---    0.08236   0.08423   0.08481   0.09744   0.10306
     Eigenvalues ---    0.11763   0.13164   0.14178   0.16901   0.18185
     Eigenvalues ---    0.18503   0.24657   0.29292   0.32999   0.33610
     Eigenvalues ---    0.34677   0.34940   0.35042   0.35947   0.39508
     Eigenvalues ---    0.41089   0.44219   1.06881
 Eigenvectors required to have negative eigenvalues:
                          R10       R3        R9        A2        A4
   1                    0.68997  -0.64742  -0.16227   0.13097   0.11822
                          R4        A1        A5        A6        A3
   1                    0.09254  -0.08562  -0.07347   0.07114  -0.06886
 RFO step:  Lambda0=2.366981299D-07 Lambda=-1.29151249D-05.
 Linear search not attempted -- option 19 set.
 Iteration  1 RMS(Cart)=  0.01146775 RMS(Int)=  0.00002051
 Iteration  2 RMS(Cart)=  0.00004731 RMS(Int)=  0.00000050
 Iteration  3 RMS(Cart)=  0.00000000 RMS(Int)=  0.00000050
 Variable       Old X    -DE/DX   Delta X   Delta X   Delta X     New X
                                 (Linear)    (Quad)   (Total)
    R1        2.05018  -0.00000   0.00000   0.00005   0.00005   2.05022
    R2        2.04977   0.00000   0.00000   0.00002   0.00002   2.04979
    R3        2.56199   0.00025   0.00000  -0.00185  -0.00185   2.56015
    R4        2.66435   0.00000   0.00000   0.00023   0.00023   2.66459
    R5        2.05867  -0.00006   0.00000  -0.00005  -0.00005   2.05861
    R6        2.05493  -0.00001   0.00000   0.00003   0.00003   2.05496
    R7        2.05639   0.00001   0.00000  -0.00005  -0.00005   2.05634
    R8        2.69323   0.00020   0.00000   0.00037   0.00037   2.69361
    R9        2.62771   0.00126   0.00000   0.00379   0.00379   2.63150
   R10        2.22958   0.00033   0.00000   0.00238   0.00238   2.23196
   R11        2.28907   0.00025   0.00000   0.00021   0.00021   2.28929
   R12        2.00310   0.00001   0.00000   0.00003   0.00003   2.00313
    A1        1.98874  -0.00003   0.00000  -0.00024  -0.00024   1.98850
    A2        1.77851  -0.00004   0.00000  -0.00050  -0.00050   1.77801
    A3        2.02220  -0.00017   0.00000  -0.00051  -0.00051   2.02169
    A4        1.80181  -0.00001   0.00000  -0.00004  -0.00004   1.80177
    A5        2.02547  -0.00006   0.00000  -0.00012  -0.00012   2.02535
    A6        1.79841   0.00040   0.00000   0.00171   0.00171   1.80011
    A7        1.91907  -0.00001   0.00000   0.00017   0.00017   1.91924
    A8        1.92566  -0.00000   0.00000   0.00005   0.00005   1.92571
    A9        1.92841   0.00005   0.00000   0.00021   0.00021   1.92861
   A10        1.92928   0.00000   0.00000  -0.00009  -0.00009   1.92919
   A11        1.83591  -0.00001   0.00000  -0.00034  -0.00034   1.83557
   A12        1.92379  -0.00004   0.00000  -0.00001  -0.00001   1.92378
   A13        1.88825   0.00008   0.00000  -0.00056  -0.00056   1.88770
   A14        1.81429   0.00048   0.00000  -0.00048  -0.00048   1.81381
   A15        3.07646   0.00058   0.00000   0.00461   0.00461   3.08107
   A16        3.07638   0.00010   0.00000   0.00048   0.00048   3.07686
   A17        3.16876   0.00001   0.00000  -0.00003  -0.00003   3.16873
   A18        3.07906   0.00028   0.00000   0.00477   0.00478   3.08384
   A19        3.17024   0.00000   0.00000  -0.00045  -0.00045   3.16979
   A20        3.13965  -0.00000   0.00000   0.00001   0.00001   3.13966
    D1       -2.15995  -0.00010   0.00000   0.00380   0.00380  -2.15614
    D2        2.04013   0.00006   0.00000   0.00555   0.00555   2.04568
    D3       -0.06409  -0.00013   0.00000   0.00423   0.00423  -0.05986
    D4        1.12500   0.00001   0.00000   0.00296   0.00296   1.12797
    D5       -3.08790   0.00002   0.00000   0.00307   0.00307  -3.08483
    D6       -1.00791   0.00000   0.00000   0.00276   0.00276  -1.00515
    D7       -1.61362  -0.00045   0.00000  -0.00761  -0.00761  -1.62123
         Item               Value     Threshold  Converged?
 Maximum Force            0.001257     0.000450     NO 
 RMS     Force            0.000275     0.000300     YES
 Maximum Displacement     0.032030     0.001800     NO 
 RMS     Displacement     0.011491     0.001200     NO 
 Predicted change in Energy=-6.339232D-06
 GradGradGradGradGradGradGradGradGradGradGradGradGradGradGradGradGradGrad

                          Input orientation:                          
 ---------------------------------------------------------------------
 Center     Atomic      Atomic             Coordinates (Angstroms)
 Number     Number       Type             X           Y           Z
 ---------------------------------------------------------------------
      1          6           0        1.326532    1.217092   -0.326271
      2          1           0        1.713307    1.984046    0.336497
      3          1           0        1.338120    1.494838   -1.374746
      4          6           0       -1.699566   -0.919691   -0.568575
      5          1           0       -0.914918   -0.893384   -1.323801
      6          1           0       -1.862918   -1.942819   -0.238361
      7          1           0       -2.619838   -0.494836   -0.964435
      8          8           0       -1.292268   -0.211318    0.599358
      9          8           0       -1.136706    1.130465    0.260894
     10          1           0        0.007168    1.222304   -0.018611
     11          6           0        1.719139   -0.104741   -0.031611
     12          6           0        1.975374   -1.256365    0.243506
     13          1           0        2.227414   -2.256888    0.486522
 ---------------------------------------------------------------------
                    Distance matrix (angstroms):
                    1          2          3          4          5
     1  C    0.000000
     2  H    1.084930   0.000000
     3  H    1.084701   1.818912   0.000000
     4  C    3.712388   4.571493   3.963256   0.000000
     5  H    3.236244   4.236007   3.283654   1.089372   0.000000
     6  H    4.490586   5.342296   4.832754   1.087436   1.782751
     7  H    4.348769   5.158821   4.448887   1.088167   1.787383
     8  O    3.123341   3.731246   3.704996   1.425395   2.075126
     9  O    2.533734   2.976053   2.988788   2.282098   2.580002
    10  H    1.354770   1.901910   1.919587   2.793483   2.651396
    11  C    1.410038   2.120983   2.123167   3.555281   3.038086
    12  C    2.619854   3.252321   3.254834   3.778626   3.307868
    13  H    3.679777   4.274615   4.281426   4.280479   3.874359
                    6          7          8          9         10
     6  H    0.000000
     7  H    1.787951   0.000000
     8  O    2.006368   2.070815   0.000000
     9  O    3.197142   2.518475   1.392530   0.000000
    10  H    3.682869   3.277853   2.031180   1.181103   0.000000
    11  C    4.031429   4.455229   3.078645   3.125243   2.166117
    12  C    3.928855   4.811967   3.449092   3.922028   3.175900
    13  H    4.165923   5.357794   4.072499   4.779369   4.158056
                   11         12         13
    11  C    0.000000
    12  C    1.211439   0.000000
    13  H    2.271243   1.060013   0.000000
 Stoichiometry    C4H7O2(2)
 Framework group  C1[X(C4H7O2)]
 Deg. of freedom    33
 Full point group                 C1      NOp   1
 Largest Abelian subgroup         C1      NOp   1
 Largest concise Abelian subgroup C1      NOp   1
                         Standard orientation:                         
 ---------------------------------------------------------------------
 Center     Atomic      Atomic             Coordinates (Angstroms)
 Number     Number       Type             X           Y           Z
 ---------------------------------------------------------------------
      1          6           0        1.336089   -1.192460    0.331686
      2          1           0        1.744275   -1.950379   -0.328629
      3          1           0        1.340403   -1.473092    1.379448
      4          6           0       -1.730468    0.889079    0.544403
      5          1           0       -0.954353    0.874560    1.308710
      6          1           0       -1.908272    1.910104    0.215144
      7          1           0       -2.647536    0.446636    0.928249
      8          8           0       -1.296910    0.191611   -0.620637
      9          8           0       -1.121276   -1.148180   -0.284108
     10          1           0        0.020716   -1.220366    0.008547
     11          6           0        1.708345    0.137066    0.045337
     12          6           0        1.947083    1.293911   -0.223545
     13          1           0        2.183962    2.299508   -0.460799
 ---------------------------------------------------------------------
 Rotational constants (GHZ):           4.8883838           2.2536750           1.7288072
 Standard basis: CC-pVTZ (5D, 7F)
 There are   315 symmetry adapted cartesian basis functions of A   symmetry.
 There are   278 symmetry adapted basis functions of A   symmetry.
[...]
 RMS     Force            0.000008     0.000300     YES
 Maximum Displacement     0.003228     0.001800     NO 
 RMS     Displacement     0.001513     0.001200     NO 
 Predicted change in Energy=-2.768016D-08
                           ----------------------------
                           ! Non-Optimized Parameters !
                           ! (Angstroms and Degrees)  !
 --------------------------                            --------------------------
 ! Name  Definition              Value          Derivative Info.                !
 --------------------------------------------------------------------------------
 ! R1    R(1,2)                  1.0849         -DE/DX =    0.0                 !
 ! R2    R(1,3)                  1.0847         -DE/DX =    0.0                 !
 ! R3    R(1,10)                 1.3546         -DE/DX =    0.0                 !
 ! R4    R(1,11)                 1.4101         -DE/DX =    0.0                 !
 ! R5    R(4,5)                  1.0894         -DE/DX =    0.0                 !
 ! R6    R(4,6)                  1.0874         -DE/DX =    0.0                 !
 ! R7    R(4,7)                  1.0882         -DE/DX =    0.0                 !
 ! R8    R(4,8)                  1.4254         -DE/DX =    0.0                 !
 ! R9    R(8,9)                  1.3926         -DE/DX =    0.0                 !
 ! R10   R(9,10)                 1.1812         -DE/DX =    0.0                 !
 ! R11   R(11,12)                1.2114         -DE/DX =    0.0                 !
 ! R12   R(12,13)                1.06           -DE/DX =    0.0                 !
 ! A1    A(2,1,3)              113.9291         -DE/DX =    0.0                 !
 ! A2    A(2,1,10)             101.8596         -DE/DX =    0.0                 !
 ! A3    A(2,1,11)             115.83           -DE/DX =    0.0                 !
 ! A4    A(3,1,10)             103.2373         -DE/DX =    0.0                 !
 ! A5    A(3,1,11)             116.04           -DE/DX =    0.0                 !
 ! A6    A(10,1,11)            103.1645         -DE/DX =    0.0                 !
 ! A7    A(5,4,6)              109.9637         -DE/DX =    0.0                 !
 ! A8    A(5,4,7)              110.3322         -DE/DX =    0.0                 !
 ! A9    A(5,4,8)              110.5044         -DE/DX =    0.0                 !
 ! A10   A(6,4,7)              110.5334         -DE/DX =    0.0                 !
 ! A11   A(6,4,8)              105.1702         -DE/DX =    0.0                 !
 ! A12   A(7,4,8)              110.2268         -DE/DX =    0.0                 !
 ! A13   A(4,8,9)              108.1559         -DE/DX =    0.0                 !
 ! A14   A(8,9,10)             103.938          -DE/DX =    0.0                 !
 ! A15   L(1,10,9,5,-1)        176.6029         -DE/DX =    0.0                 !
 ! A16   L(1,11,12,4,-1)       176.3002         -DE/DX =    0.0                 !
 ! A17   L(11,12,13,4,-1)      181.5484         -DE/DX =    0.0                 !
 ! A18   L(1,10,9,5,-2)        176.7403         -DE/DX =    0.0                 !
 ! A19   L(1,11,12,4,-2)       181.611          -DE/DX =    0.0                 !
 ! A20   L(11,12,13,4,-2)      179.8898         -DE/DX =    0.0                 !
 ! D1    D(2,1,9,8)           -123.6653         -DE/DX =    0.0                 !
 ! D2    D(3,1,9,8)            117.1058         -DE/DX =    0.0                 !
 ! D3    D(11,1,9,8)            -3.551          -DE/DX =    0.0                 !
 ! D4    D(5,4,8,9)             64.6424         -DE/DX =    0.0                 !
 ! D5    D(6,4,8,9)           -176.7324         -DE/DX =    0.0                 !
 ! D6    D(7,4,8,9)            -57.5754         -DE/DX =    0.0                 !
 ! D7    D(4,8,9,10)           -92.9395         -DE/DX =    0.0                 !
 --------------------------------------------------------------------------------
 GradGradGradGradGradGradGradGradGradGradGradGradGradGradGradGradGradGrad


 ----------------------------------------------------------------------

 Electric dipole moment (input orientation):
 (Debye = 10**-18 statcoulomb cm , SI units = C m)
                  (au)            (Debye)         (10**-30 SI)
   Tot        0.807231D+00      0.205178D+01      0.684399D+01
   x          0.283063D+00      0.719475D+00      0.239991D+01
   y         -0.463889D+00     -0.117909D+01     -0.393302D+01
   z         -0.596912D+00     -0.151720D+01     -0.506083D+01

 Dipole polarizability, Alpha (input orientation).
 (esu units = cm**3 , SI units = C**2 m**2 J**-1)
 Alpha(0;0):
               (au)            (10**-24 esu)      (10**-40 SI)
   iso        0.710385D+02      0.105268D+02      0.117127D+02
   aniso      0.467162D+02      0.692263D+01      0.770246D+01
   xx         0.958664D+02      0.142059D+02      0.158062D+02
   yx        -0.248647D+01     -0.368457D+00     -0.409963D+00
   yy         0.740823D+02      0.109779D+02      0.122145D+02
   zx        -0.309291D+00     -0.458323D-01     -0.509953D-01
   zy        -0.446381D+01     -0.661468D+00     -0.735983D+00
   zz         0.431666D+02      0.639664D+01      0.711722D+01

 ----------------------------------------------------------------------

 Dipole orientation:
     6          2.38115480         -2.50741169          0.01319378
     1          3.66582799         -3.04643361         -1.49097261
     1          1.76821469         -4.07404045          1.18435826
     6         -3.56738765          1.16274800          0.66582747
     1         -2.68512367          0.13249911          2.21440524
     1         -3.86180941          3.12363089          1.20537933
     1         -5.35145720          0.28196091          0.14638650
     8         -1.92071934          1.25730073         -1.46367819
     8         -1.57600333         -1.19903688         -2.34339145
     1          0.26856936         -1.89170092         -1.29455096
     6          2.97910662         -0.25059443          1.29752057
     6          3.36186143          1.75431494          2.33412352
     1          3.74856157          3.49407154          3.24858115

 Electric dipole moment (dipole orientation):
 (Debye = 10**-18 statcoulomb cm , SI units = C m)
                  (au)            (Debye)         (10**-30 SI)
   Tot        0.807231D+00      0.205178D+01      0.684399D+01
   x          0.000000D+00      0.000000D+00      0.000000D+00
   y          0.000000D+00      0.000000D+00      0.000000D+00
   z          0.807231D+00      0.205178D+01      0.684399D+01

 Dipole polarizability, Alpha (dipole orientation).
 (esu units = cm**3 , SI units = C**2 m**2 J**-1)
 Alpha(0;0):
               (au)            (10**-24 esu)      (10**-40 SI)
   iso        0.710385D+02      0.105268D+02      0.117127D+02
   aniso      0.467162D+02      0.692263D+01      0.770246D+01
   xx         0.879943D+02      0.130394D+02      0.145083D+02
   yx        -0.585145D+01     -0.867096D+00     -0.964775D+00
   yy         0.678958D+02      0.100611D+02      0.111945D+02
   zx         0.177984D+02      0.263746D+01      0.293457D+01
   zy         0.115045D+02      0.170478D+01      0.189683D+01
   zz         0.572252D+02      0.847990D+01      0.943516D+01

 ----------------------------------------------------------------------
 1\1\GINC-N105\Freq\UB2PLYPD3-FC\CC-pVTZ\C4H7O2(2)\ROOT\11-Jun-2019\0\\
 #N Geom=AllCheck Guess=TCheck SCRF=Check GenChk UB2PLYPD3(FC)/CC-pVTZ 
 Freq\\Title Card Required\\0,2\C,1.3271427652,1.2169169149,-0.32581944
 14\H,1.7128357076,1.9841756394,0.3372340029\H,1.3390807569,1.494819587
 1,-1.3742509941\C,-1.7020627532,-0.9196570757,-0.5689158644\H,-0.91767
 784,-0.8948157415,-1.3244652318\H,-1.8669409286,-1.942436237,-0.238371
 1685\H,-2.6218061639,-0.4934625481,-0.964558879\O,-1.29323095,-0.21166
 05822,0.5986777101\O,-1.1363668549,1.1300520081,0.2599036936\H,0.00782
 51917,1.221131176,-0.0188699763\C,1.7211660623,-0.1045130426,-0.031123
 9271\C,1.9788371091,-1.2558067874,0.2439691289\H,2.2320378978,-2.25604
 0311,0.4869569471\\Version=ES64L-G16RevB.01\State=2-A\HF=-306.3404371\
 MP2=-306.7180941\PUHF=-306.3493534\PMP2-0=-306.7192637\S2=0.794675\S2-
 1=0.747949\S2A=0.751287\RMSD=2.392e-09\RMSF=5.341e-06\ZeroPoint=0.0946
 561\Thermal=0.1027169\Dipole=0.2830631,-0.4638892,-0.5969115\DipoleDer
 iv=1.1144934,0.1150295,-0.0626524,-0.4326903,0.1076334,0.0363404,-0.07
 16062,-0.0259052,0.1297495,-0.0657922,-0.0833642,-0.0261423,-0.0062392
 ,-0.0019349,-0.0137836,0.04593,-0.0174525,0.0354618,-0.0759379,-0.0432
 108,0.0326462,-0.011583,0.0260129,0.0112607,-0.0070201,0.0477868,-0.02
 44215,0.5121837,0.055218,0.0337927,0.3129211,0.3677084,0.0712759,0.406
 0564,0.1456365,0.398931,-0.0691879,0.0027425,0.1135158,-0.0678448,0.01
 64749,0.0190008,-0.0505538,-0.0523757,-0.0388588,0.0492175,-0.0194851,
 -0.0147508,-0.0836943,-0.0794126,0.0179652,-0.0280068,0.0406713,0.0239
 719,-0.1281597,0.008606,-0.074072,0.0785751,0.0158145,0.0319242,-0.115
 2058,-0.0465669,0.0163523,-0.3248623,-0.039962,0.0054726,-1.3418304,-0
 .3365461,0.0518646,0.1479941,-0.0320456,-0.3516289,0.616831,0.128579,-
 0.1141156,1.3092805,-0.0848613,-0.2048698,-0.5972465,-0.0986462,-0.186
 7748,-1.3347132,-0.1204436,0.1077106,-0.1794401,0.0827571,0.0281129,0.
 368053,0.0527036,0.1142337,-0.3437976,-0.027672,0.0137892,0.5128717,-0
 .0769495,-0.0603446,-0.1094494,-0.0006172,-0.1202788,-0.1568482,0.0295
 875,-0.0199597,-0.0487709,-0.2651357,0.0134541,-0.0032241,-0.0107942,-
 0.2098901,0.2065734,-0.0056247,0.0047657,-0.0415554,0.2284388,-0.00220
 06,0.0142792,-0.0023946,0.2131527\Polar=95.866378,-2.4864682,74.082337
 8,-0.3092914,-4.4638094,43.1666379\PG=C01 [X(C4H7O2)]\NImag=1\\0.14261
 298,0.03067804,0.57945754,0.08637538,-0.00818610,0.56218556,-0.0590409
 0,-0.08229399,-0.07612463,0.06578945,-0.06994878,-0.18445352,-0.120524
 60,0.07619950,0.20135210,-0.06917066,-0.11687823,-0.15423897,0.0735961
 6,0.12995838,0.15982098,-0.01848648,-0.00782674,0.00951393,0.00246026,
 0.00311435,-0.01192588,0.02543510,-0.00031745,-0.06624402,0.06515833,0
 .00148372,0.00793338,-0.02048215,-0.00049447,0.07046444,-0.00282680,0.
 06563997,-0.31371004,0.00222005,0.00551844,-0.01365981,-0.00052947,-0.
 07446595,0.33183038,-0.00367148,0.00076921,-0.00129598,0.00017234,0.00
 011158,-0.00000832,0.00111276,-0.00011912,0.00010533,0.57450652,-0.008
 05015,0.00243149,0.00140044,0.00132072,-0.00006198,-0.00057616,0.00153
 545,0.00022537,-0.00013153,-0.02470787,0.56869236,-0.00886470,0.002676
 69,0.00262463,0.00129701,-0.00017916,-0.00084205,0.00164582,0.00044372
 ,-0.00024516,-0.03408142,-0.08742755,0.50175225,0.00021299,-0.00032263
 ,0.00037418,-0.00003541,-0.00000816,-0.00001034,0.00003727,0.00000920,
 -0.00011390,-0.19921115,-0.00836412,0.13365081,0.20627199,0.00076314,-
 0.00002434,0.00021964,0.00003608,-0.00006924,0.00006090,-0.00052006,-0
 .00014412,0.00002655,-0.00882740,-0.05210028,0.01350044,0.00962384,0.0
 4998509,0.00305259,-0.00120064,-0.00019314,-0.00032476,0.00006814,0.00
 016792,-0.00058623,-0.00007043,0.00007141,0.12803624,0.00878076,-0.161
 12996,-0.14104442,-0.00272217,0.18920774,0.00043285,-0.00029948,-0.000
 06541,-0.00009946,0.00003841,0.00001067,-0.00001426,0.00006193,-0.0000
 2918,-0.05671941,-0.03412565,0.01140630,-0.00226305,-0.02221816,0.0068
 4315,0.05400671,0.00073106,-0.00030867,-0.00008845,-0.00009478,0.00003
 000,0.00007912,-0.00010878,-0.00001593,-0.00000091,-0.03674611,-0.2830
 2939,0.07918368,0.00080822,0.00151918,0.00057008,0.04361791,0.31341371
 ,0.00027386,-0.00004798,-0.00008753,-0.00000135,0.00000281,0.00007567,
 -0.00013950,-0.00006708,0.00001370,0.01423255,0.09121306,-0.08178401,0
 .00129231,0.02024540,-0.00454995,-0.01148266,-0.08326437,0.08343625,0.
 00111534,-0.00021517,-0.00011604,-0.00018281,-0.00001966,0.00008924,-0
 .00022060,-0.00000282,-0.00000133,-0.24187928,0.09335946,-0.07202182,-
 0.01821685,0.01107441,-0.00772998,0.00670199,-0.00236411,0.00347017,0.
 25802239,0.00018093,-0.00005781,0.00015516,-0.00005279,0.00001938,-0.0
 0000211,-0.00013049,0.00001547,0.00001287,0.09803054,-0.09844969,0.042
 83094,-0.00269578,0.00190929,0.00037617,0.02550345,-0.00893469,0.00898
 863,-0.10036741,0.09835119,0.00176847,-0.00067539,-0.00047790,-0.00032
 035,0.00004450,0.00014316,-0.00027839,-0.00006105,0.00002801,-0.069081
 03,0.03602972,-0.07604950,0.01843166,-0.00855465,0.00954137,-0.0077141
 6,0.00401041,-0.00227531,0.08740410,-0.03658763,0.09216807,-0.00054226
 ,0.00195508,0.00208332,0.00000169,-0.00003271,0.00027501,-0.00164153,-
 0.00009081,-0.00013073,-0.07398733,-0.00911299,-0.04443442,0.01305705,
 0.00873137,0.01471077,-0.00226182,-0.00328733,-0.00488129,-0.00564210,
 -0.02017983,-0.03208553,0.10982317,0.04633744,-0.01253117,-0.00704027,
 -0.00608899,-0.00001655,0.00278664,-0.00669198,-0.00084227,0.00034867,
 -0.01549508,-0.07391340,-0.04999064,-0.00162961,-0.00649673,-0.0122399
 7,-0.01146876,-0.02190163,-0.02937702,-0.00410667,0.00147554,0.0006173
 6,0.06946376,0.33463634,-0.00721830,0.00211057,-0.00008237,0.00086007,
 0.00014028,-0.00030235,0.00146216,0.00008414,0.00012725,-0.03635003,-0
 .01835403,-0.19802723,-0.01129460,-0.02167161,-0.03535432,0.00305861,0
 .00467714,0.00823712,-0.01235496,-0.01475995,-0.02491058,0.05664913,0.
 01350758,0.31675804,-0.13970170,0.01974095,0.02620590,0.00906755,-0.00
 010350,-0.00390462,0.00964784,0.00085075,-0.00013538,-0.00457601,-0.02
 600910,-0.00033520,0.00125604,0.00364297,0.00176610,0.00042125,-0.0019
 6294,-0.00286591,0.00249142,0.00012203,0.00444268,-0.03938118,0.014222
 04,-0.01030458,0.09900013,-0.05793485,0.01933958,0.00825189,0.00733006
 ,0.00026797,-0.00256707,0.00755179,0.00071925,-0.00063052,-0.01049189,
 -0.06318009,-0.00292394,0.00172867,0.00517700,0.00653878,-0.00158126,-
 0.00085454,-0.00739415,0.00252306,0.00597245,0.00527500,-0.01661062,-0
 .20992146,0.02703518,-0.02641931,0.27844248,0.04827861,-0.00919757,-0.
 00576879,-0.00351924,0.00043247,0.00203507,-0.00469026,-0.00053528,0.0
 0102432,0.00171062,-0.02710572,0.01648743,-0.00117548,-0.00115192,0.00
 110697,-0.00233280,-0.00495291,-0.00267031,0.00097491,-0.00129617,0.00
 108431,-0.00071146,0.05923049,-0.06019547,0.00525865,-0.01725272,0.048
 05984,0.12171565,-0.03745601,-0.02174818,-0.02230013,-0.00044748,0.007
 36492,-0.01755884,-0.00162029,0.00127305,0.00445286,0.01392427,0.01245
 794,0.00008740,-0.00191858,-0.00461832,-0.00023494,-0.00032126,0.00032
 603,-0.00189941,-0.00066757,-0.00290797,-0.00206066,-0.08010459,0.0147
 5445,0.05478636,0.08543008,-0.03980204,-0.10843691,0.01583328,-0.02986
 040,-0.00133738,-0.01198859,-0.00065565,0.00221354,-0.00553163,-0.0003
 7938,0.00101370,-0.00150902,0.00061455,0.00385135,0.00044698,0.0001634
 7,-0.00114447,0.00015402,-0.00031353,-0.00050598,-0.00003869,-0.000193
 59,-0.00048382,-0.02640881,-0.02248004,0.00895750,0.03521519,-0.020364
 15,-0.00692108,-0.01854629,0.07322077,-0.03550642,0.01053077,-0.016162
 58,-0.00437066,-0.00088504,-0.00067438,0.01748844,0.00048390,-0.004800
 94,-0.00297689,-0.00410656,-0.00172704,0.00056327,0.00021953,0.0009878
 5,0.00033855,-0.00014412,-0.00040984,0.00055055,0.00032679,0.00060944,
 0.00710520,0.02445304,-0.00664978,-0.02411150,-0.01886439,-0.00010741,
 0.03834464,-0.00266024,0.02747764,-0.05092165,0.06542146,-0.02395021,0
 .00403263,-0.01033591,0.00518945,-0.00173670,-0.00097667,-0.00006263,-
 0.00002642,0.00036968,0.00000663,-0.00112101,-0.00049416,-0.00042572,0
 .00007133,-0.00028108,-0.00023647,-0.00026320,0.00024828,0.00012015,0.
 00374808,-0.00582211,0.00086953,0.00820913,0.01095975,-0.00506009,-0.0
 3325494,0.01310563,0.00337222,0.14634604,0.02503258,-0.28039755,0.0543
 6542,0.01374201,-0.02407693,0.00308555,0.00934061,-0.00942968,0.004449
 61,-0.00121085,-0.00084492,-0.00046853,0.00101576,0.00041126,0.0007486
 6,0.00012958,0.00044486,0.00024200,0.00047649,-0.00041827,0.00002497,-
 0.00800698,0.01222516,-0.00194393,-0.02245532,-0.01946148,0.01077157,0
 .05505062,0.00455910,-0.01359825,-0.27218017,1.21595863,-0.01252137,0.
 04577489,-0.08525816,0.00814940,-0.01594816,0.00852248,-0.01299810,0.0
 3101790,-0.00093598,-0.00011666,0.00018295,-0.00071346,-0.00063250,-0.
 00018766,0.00000815,0.00001280,-0.00009015,-0.00002373,-0.00021776,0.0
 0006245,0.00010173,0.00192715,-0.00225680,0.00053160,0.00467315,0.0032
 5994,-0.00157005,-0.00857629,-0.00457460,0.00227268,0.06783090,-0.2652
 1142,0.15546926,0.00154924,0.00877227,-0.00140161,0.00037185,0.0008405
 8,-0.00131357,0.00103819,0.00103764,0.00027489,-0.00020072,-0.00030746
 ,-0.00081999,-0.00011172,0.00002425,0.00041060,0.00011030,0.00006710,-
 0.00001654,-0.00005801,0.00009335,0.00026307,-0.00118398,0.00165846,-0
 .00013700,-0.00145697,-0.00268041,0.00117708,0.00475942,-0.00022393,-0
 .00095291,-0.07668041,0.20279622,-0.04811208,0.11323423,0.01539049,-0.
 02836912,0.00616003,0.00059125,-0.00062524,0.00245331,-0.00027613,-0.0
 0209658,-0.00177991,-0.00001068,-0.00067963,-0.00177648,-0.00063455,-0
 .00032404,0.00033885,0.00023206,-0.00000485,-0.00003177,-0.00026398,0.
 00033055,0.00041926,0.00366240,0.00048201,0.00018907,0.00293125,0.0032
 1179,-0.00173019,-0.01283306,-0.00414881,0.00408432,0.20078226,-0.9049
 7925,0.20958768,-0.30278082,1.31694595,-0.00384107,0.00800619,0.004948
 91,-0.00105770,0.00057346,-0.00073284,0.00067151,-0.00042095,0.0002171
 9,-0.00011412,0.00012254,-0.00049885,-0.00006617,-0.00006976,0.0002034
 8,-0.00001186,0.00001117,0.00000382,-0.00008221,-0.00009387,0.00007561
 ,-0.00049691,-0.00018571,-0.00002409,-0.00060033,-0.00052604,0.0005117
 0,0.00305373,0.00144093,-0.00080130,-0.04746583,0.20914863,-0.07854215
 ,0.07290904,-0.30537597,0.11495385,0.00472542,0.00107701,0.00014936,-0
 .00023704,0.00059177,-0.00019207,-0.00007301,0.00017840,-0.00004389,0.
 00002730,0.00016776,0.00009305,0.00003645,0.00008231,-0.00009002,-0.00
 015150,-0.00005791,0.00002882,0.00003112,-0.00008471,-0.00004268,0.000
 07086,-0.00027391,0.00000551,0.00023614,0.00019492,-0.00010849,-0.0000
 5586,-0.00050814,0.00015552,0.00159710,-0.00373054,0.00058135,-0.04137
 143,0.09320949,-0.02289809,0.03516443,0.00130426,0.00101799,0.00146588
 ,-0.00018418,0.00035629,-0.00013174,0.00003806,-0.00020593,-0.00000096
 ,0.00020669,0.00029561,0.00027948,0.00002219,-0.00000653,-0.00004376,-
 0.00004406,-0.00004454,-0.00000357,-0.00005490,-0.00001983,-0.00005868
 ,-0.00008255,-0.00071580,0.00002804,0.00022500,0.00065121,-0.00029098,
 -0.00048984,-0.00016235,0.00016026,-0.00079695,0.00600907,-0.00161700,
 0.09070273,-0.37974276,0.08736938,-0.09084646,0.37256756,0.00020041,0.
 00144684,0.00622040,-0.00040399,0.00079848,-0.00031488,0.00036597,-0.0
 0108509,0.00003966,-0.00006029,-0.00002793,0.00015293,0.00002519,0.000
 08529,-0.00006753,-0.00003399,0.00000931,0.00003412,0.00003514,-0.0000
 1328,-0.00003841,-0.00001023,0.00014662,-0.00010781,-0.00008897,-0.000
 20195,0.00000239,0.00007802,0.00015054,-0.00001433,-0.00018792,-0.0016
 1429,0.00013761,-0.02228099,0.08746181,-0.04031534,0.02236165,-0.08715
 634,0.03427118\\-0.00000046,0.00000089,0.00000004,0.00000030,-0.000000
 74,0.00000062,-0.00000023,0.00000257,0.00000044,-0.00000109,-0.0000012
 5,0.00000076,0.00000303,-0.00000020,0.00000020,-0.00000190,0.00000066,
 0.00000125,0.00000092,0.00000086,-0.00000048,0.00000859,-0.00001619,0.
 00001082,-0.00000248,0.00001966,-0.00001212,0.00000047,-0.00000250,0.0
 0000426,-0.00000504,0.00000048,-0.00000390,-0.00000221,-0.00000434,-0.
 00000095,0.00000010,0.00000009,-0.00000095\\\@


 THE UNDERLYING PHYSICAL LAWS NECESSARY FOR THE 
 MATHEMATICAL THEORY OF A LARGE PART OF PHYSICS AND THE
 WHOLE OF CHEMISTRY ARE THUS COMPLETELY KNOWN, AND THE
 DIFFICULTY IS ONLY THAT THE EXACT APPLICATION OF THESE
 LAWS LEADS TO EQUATIONS MUCH TOO COMPLICATED 
 TO BE SOLUBLE.

                                        -- P. A. M. DIRAC, 1929
 Job cpu time:       1 days  1 hours 25 minutes 39.6 seconds.
 Elapsed time:       0 days  0 hours 39 minutes 26.9 seconds.
 File lengths (MBytes):  RWF=  41764 Int=      0 D2E=      0 Chk=     13 Scr=      1
 Normal termination of Gaussian 16 at Tue Jun 11 11:08:30 2019.
